# vtk DataFile Version 3.0
LBM simulation at step 160
ASCII
DATASET STRUCTURED_POINTS
DIMENSIONS 256 256 1
ORIGIN 0 0 0
SPACING 1 1 1
POINT_DATA 65536
SCALARS density float
LOOKUP_TABLE default
0.741152 1.08753 1.13422 1.09198 1.08377 1.09258 1.09434 1.09252 1.09192 1.09207 1.09201 1.09183 1.09169 1.09159 1.09149 1.0914 1.0913 1.09122 1.09113 1.09106 1.09098 1.09091 1.09084 1.09078 1.09072 1.09066 1.0906 1.09055 1.0905 1.09045 1.0904 1.09035 1.0903 1.09026 1.09021 1.09017 1.09012 1.09008 1.09003 1.08999 1.08995 1.08991 1.08987 1.08982 1.08978 1.08974 1.0897 1.08966 1.08961 1.08957 1.08953 1.08949 1.08944 1.0894 1.08935 1.0893 1.08926 1.08921 1.08916 1.08911 1.08906 1.089 1.08895 1.08889 1.08883 1.08877 1.08871 1.08864 1.08858 1.0885 1.08843 1.08835 1.08826 1.08817 1.08808 1.08798 1.08787 1.08777 1.08766 1.08756 1.08746 1.08736 1.08721 1.08697 1.08652 1.08569 1.08426 1.08193 1.07841 1.07344 1.06694 1.05903 1.05011 1.0408 1.03179 1.0237 1.01692 1.01159 1.00764 1.00486 1.00299 1.00178 1.00102 1.00057 1.00031 1.00016 1.00008 1.00004 1.00002 1.00001 1 1 1 1 1 1 1 1 1 1 1 1 1 1 1 1 1 1 1 1 1 1 1 1 1 1 1 1 1 1 1 1 1 1 1 1 1 0.999999 0.999998 0.999996 0.999993 0.999986 0.999975 0.999955 0.999923 0.999871 0.999791 0.999671 0.999498 0.999254 0.998924 0.99849 0.997937 0.997254 0.996434 0.995477 0.994389 0.993185 0.991882 0.990505 0.989079 0.987629 0.986181 0.984754 0.983368 0.982032 0.980755 0.979539 0.978383 0.977282 0.976231 0.975222 0.97425 0.973306 0.972387 0.971488 0.970604 0.969735 0.968877 0.96803 0.967191 0.966361 0.965539 0.964722 0.963912 0.963107 0.962306 0.961509 0.960714 0.959923 0.959133 0.958345 0.957558 0.956771 0.955984 0.955196 0.954408 0.953618 0.952826 0.952031 0.951233 0.950431 0.949626 0.948815 0.948 0.947178 0.94635 0.945515 0.944671 0.943819 0.942957 0.942084 0.9412 0.940303 0.939393 0.938467 0.937524 0.936564 0.935583 0.93458 0.933553 0.932498 0.931414 0.930297 0.929143 0.927946 0.926703 0.925406 0.924047 0.922619 0.921109 0.919504 0.917787 0.915935 0.913918 0.911705 0.909244 0.90642 0.903138 0.89949 0.895066 0.887817 0.878478 0.873835 0.851752 0.695123 
1.1306 1.06395 1.059 1.09413 1.09756 1.09206 1.09118 1.0923 1.0924 1.09203 1.09185 1.09177 1.09167 1.09156 1.09146 1.09137 1.09128 1.0912 1.09111 1.09104 1.09096 1.0909 1.09082 1.09077 1.0907 1.09065 1.09058 1.09054 1.09048 1.09043 1.09038 1.09033 1.09028 1.09024 1.09019 1.09015 1.0901 1.09006 1.09001 1.08997 1.08993 1.08988 1.08984 1.0898 1.08976 1.08971 1.08967 1.08963 1.08959 1.08954 1.0895 1.08945 1.08941 1.08936 1.08932 1.08927 1.08922 1.08917 1.08912 1.08907 1.08901 1.08896 1.0889 1.08884 1.08878 1.08871 1.08865 1.08858 1.08851 1.08843 1.08835 1.08826 1.08817 1.08808 1.08797 1.08787 1.08775 1.08763 1.08751 1.08739 1.08726 1.0871 1.08688 1.08653 1.08596 1.08499 1.08343 1.08104 1.07758 1.07286 1.06676 1.05937 1.05097 1.04206 1.03326 1.02517 1.01824 1.01268 1.00847 1.00545 1.00339 1.00204 1.00119 1.00067 1.00037 1.00019 1.0001 1.00005 1.00002 1.00001 1.00001 1 1 1 1 1 1 1 1 1 1 1 1 1 1 1 1 1 1 1 1 1 1 1 1 1 1 1 1 1 1 1 1 1 1 1 0.999999 0.999999 0.999998 0.999996 0.999991 0.999984 0.999971 0.999949 0.999912 0.999855 0.999767 0.999638 0.999451 0.999194 0.998847 0.998396 0.997827 0.997128 0.996297 0.995332 0.994242 0.993041 0.991746 0.990381 0.98897 0.987538 0.986108 0.984699 0.983328 0.982006 0.980739 0.979531 0.978379 0.977281 0.97623 0.975221 0.974246 0.973301 0.972381 0.971479 0.970595 0.969724 0.968866 0.968017 0.967178 0.966348 0.965524 0.964708 0.963896 0.96309 0.962289 0.961491 0.960696 0.959904 0.959113 0.958324 0.957536 0.956748 0.95596 0.955172 0.954382 0.953591 0.952798 0.952002 0.951203 0.9504 0.949593 0.948781 0.947964 0.947141 0.946311 0.945474 0.944628 0.943774 0.94291 0.942034 0.941148 0.940248 0.939334 0.938405 0.937459 0.936494 0.935508 0.934501 0.933468 0.932407 0.931316 0.930191 0.929028 0.927822 0.926567 0.925257 0.923884 0.922438 0.920907 0.919278 0.91753 0.915644 0.913585 0.911307 0.908762 0.905915 0.902595 0.898361 0.893349 0.88855 0.880489 0.857388 0.834441 0.834441 
1.13984 1.06808 1.0769 1.09646 1.0934 1.09084 1.09187 1.09246 1.09212 1.09187 1.09181 1.09173 1.09161 1.09152 1.09142 1.09134 1.09125 1.09117 1.09109 1.09102 1.09094 1.09088 1.0908 1.09075 1.09068 1.09063 1.09056 1.09052 1.09045 1.09041 1.09035 1.09031 1.09026 1.09022 1.09016 1.09012 1.09007 1.09003 1.08999 1.08995 1.0899 1.08986 1.08981 1.08977 1.08973 1.08969 1.08964 1.0896 1.08955 1.08951 1.08946 1.08942 1.08937 1.08932 1.08928 1.08923 1.08918 1.08912 1.08907 1.08902 1.08896 1.0889 1.08884 1.08878 1.08872 1.08865 1.08858 1.08851 1.08843 1.08835 1.08826 1.08817 1.08807 1.08797 1.08785 1.08773 1.08761 1.08747 1.08733 1.08717 1.087 1.08679 1.0865 1.08607 1.08539 1.08434 1.08274 1.08038 1.07706 1.07259 1.06687 1.0599 1.0519 1.04328 1.03461 1.02648 1.01939 1.01361 1.00917 1.00595 1.00373 1.00226 1.00132 1.00075 1.00041 1.00022 1.00011 1.00006 1.00003 1.00001 1.00001 1 1 1 1 1 1 1 1 1 1 1 1 1 1 1 1 1 1 1 1 1 1 1 1 1 1 1 1 1 1 1 1 1 1 1 0.999999 0.999999 0.999998 0.999995 0.99999 0.999982 0.999968 0.999944 0.999905 0.999843 0.99975 0.999612 0.999417 0.999147 0.998787 0.998322 0.997739 0.997028 0.996185 0.995212 0.994119 0.992918 0.991628 0.990272 0.988873 0.987455 0.98604 0.984646 0.983289 0.98198 0.980724 0.979523 0.978378 0.977283 0.976235 0.975226 0.974252 0.973306 0.972384 0.971482 0.970596 0.969724 0.968865 0.968015 0.967176 0.966344 0.96552 0.964703 0.963891 0.963084 0.962282 0.961483 0.960688 0.959895 0.959104 0.958314 0.957525 0.956737 0.955948 0.955159 0.954368 0.953576 0.952782 0.951985 0.951185 0.950382 0.949574 0.948761 0.947942 0.947118 0.946287 0.945448 0.944601 0.943746 0.94288 0.942003 0.941115 0.940213 0.939297 0.938366 0.937417 0.93645 0.935462 0.934452 0.933416 0.932352 0.931258 0.930129 0.928962 0.927751 0.926492 0.925177 0.923798 0.922346 0.92081 0.919175 0.917422 0.915529 0.913471 0.911206 0.90866 0.905786 0.902614 0.898837 0.893685 0.888072 0.884227 0.874772 0.858584 0.858584 
1.05659 1.09246 1.1053 1.08767 1.08753 1.09285 1.09298 1.09178 1.0917 1.09188 1.09179 1.09164 1.09154 1.09147 1.09138 1.0913 1.09121 1.09114 1.09105 1.09099 1.09091 1.09086 1.09078 1.09073 1.09065 1.09061 1.09054 1.0905 1.09043 1.09039 1.09033 1.09029 1.09023 1.09019 1.09014 1.0901 1.09005 1.09001 1.08996 1.08992 1.08987 1.08983 1.08979 1.08974 1.0897 1.08966 1.08961 1.08957 1.08952 1.08947 1.08943 1.08938 1.08933 1.08928 1.08923 1.08918 1.08913 1.08908 1.08902 1.08897 1.08891 1.08885 1.08879 1.08872 1.08865 1.08858 1.08851 1.08843 1.08835 1.08826 1.08817 1.08807 1.08796 1.08785 1.08773 1.0876 1.08746 1.08731 1.08714 1.08696 1.08675 1.0865 1.08615 1.08566 1.08492 1.08382 1.0822 1.07988 1.07667 1.07241 1.06699 1.06038 1.05273 1.04438 1.03584 1.0277 1.02048 1.01449 1.00985 1.00644 1.00406 1.00247 1.00146 1.00083 1.00046 1.00025 1.00013 1.00006 1.00003 1.00001 1.00001 1 1 1 1 1 1 1 1 1 1 1 1 1 1 1 1 1 1 1 1 1 1 1 1 1 1 1 1 1 1 1 1 1 1 1 0.999999 0.999999 0.999997 0.999995 0.99999 0.999981 0.999965 0.99994 0.999898 0.999833 0.999734 0.999591 0.999387 0.999108 0.998738 0.998261 0.997666 0.996945 0.996094 0.995115 0.994019 0.992819 0.991534 0.990186 0.988797 0.987391 0.985988 0.984607 0.983262 0.981963 0.980716 0.979523 0.978382 0.977291 0.976245 0.975237 0.974263 0.973317 0.972394 0.971491 0.970605 0.969732 0.968872 0.968022 0.967182 0.96635 0.965526 0.964708 0.963895 0.963088 0.962285 0.961486 0.96069 0.959896 0.959104 0.958314 0.957525 0.956736 0.955946 0.955157 0.954366 0.953573 0.952778 0.951981 0.95118 0.950376 0.949567 0.948753 0.947934 0.947109 0.946277 0.945438 0.94459 0.943734 0.942867 0.94199 0.941101 0.940198 0.939282 0.93835 0.9374 0.936433 0.935444 0.934433 0.933397 0.932333 0.931239 0.93011 0.928943 0.927734 0.926476 0.925163 0.923788 0.922342 0.920814 0.91919 0.917454 0.915584 0.913552 0.911338 0.908908 0.906134 0.902932 0.899585 0.895893 0.889983 0.88301 0.880219 0.876849 0.876849 
1.09612 1.09591 1.08834 1.08841 1.09344 1.09246 1.09126 1.09165 1.09195 1.09178 1.09161 1.09155 1.09149 1.09141 1.09132 1.09125 1.09117 1.0911 1.09102 1.09096 1.09088 1.09083 1.09075 1.0907 1.09062 1.09058 1.09051 1.09047 1.0904 1.09037 1.0903 1.09027 1.0902 1.09017 1.09011 1.09008 1.09002 1.08998 1.08993 1.08989 1.08984 1.0898 1.08976 1.08971 1.08967 1.08962 1.08958 1.08953 1.08948 1.08944 1.08939 1.08934 1.08929 1.08924 1.08919 1.08914 1.08909 1.08903 1.08897 1.08892 1.08885 1.08879 1.08873 1.08866 1.08859 1.08851 1.08843 1.08835 1.08827 1.08817 1.08808 1.08797 1.08786 1.08774 1.08761 1.08747 1.08732 1.08715 1.08697 1.08677 1.08653 1.08623 1.08584 1.08529 1.08449 1.08334 1.0817 1.0794 1.0763 1.07224 1.0671 1.06083 1.05352 1.04543 1.03702 1.02888 1.02153 1.01536 1.01051 1.00691 1.00438 1.00268 1.00159 1.00091 1.00051 1.00027 1.00014 1.00007 1.00004 1.00002 1.00001 1 1 1 1 1 1 1 1 1 1 1 1 1 1 1 1 1 1 1 1 1 1 1 1 1 1 1 1 1 1 1 1 1 1 1 0.999999 0.999999 0.999997 0.999994 0.999989 0.999979 0.999963 0.999936 0.999892 0.999824 0.999722 0.999573 0.999362 0.999075 0.998696 0.99821 0.997606 0.996876 0.996018 0.995036 0.993939 0.992741 0.99146 0.99012 0.988741 0.987346 0.985955 0.984585 0.98325 0.98196 0.980721 0.979533 0.978397 0.977308 0.976263 0.975256 0.974282 0.973336 0.972413 0.971509 0.970622 0.969749 0.968888 0.968038 0.967197 0.966364 0.965539 0.964721 0.963908 0.9631 0.962297 0.961497 0.960701 0.959907 0.959115 0.958324 0.957534 0.956745 0.955955 0.955165 0.954373 0.95358 0.952785 0.951987 0.951186 0.950381 0.949572 0.948759 0.947939 0.947114 0.946282 0.945442 0.944595 0.943738 0.942871 0.941994 0.941105 0.940203 0.939286 0.938355 0.937406 0.936439 0.935452 0.934442 0.933408 0.932347 0.931255 0.93013 0.928968 0.927764 0.926514 0.925211 0.923848 0.922417 0.920908 0.919309 0.917606 0.915784 0.913817 0.911671 0.909344 0.906826 0.903931 0.90057 0.897381 0.894108 0.88896 0.884693 0.882551 0.882551 
1.09803 1.09119 1.08922 1.09383 1.09234 1.09063 1.09161 1.09203 1.09169 1.09152 1.09153 1.0915 1.0914 1.09133 1.09126 1.0912 1.09111 1.09106 1.09097 1.09092 1.09084 1.0908 1.09071 1.09067 1.09059 1.09056 1.09048 1.09045 1.09037 1.09034 1.09027 1.09024 1.09018 1.09015 1.09008 1.09005 1.08999 1.08996 1.0899 1.08987 1.08981 1.08977 1.08972 1.08968 1.08963 1.08959 1.08954 1.0895 1.08945 1.0894 1.08935 1.0893 1.08925 1.0892 1.08915 1.0891 1.08904 1.08898 1.08892 1.08886 1.0888 1.08874 1.08867 1.0886 1.08852 1.08845 1.08836 1.08828 1.08819 1.08809 1.08799 1.08788 1.08776 1.08763 1.08749 1.08734 1.08718 1.087 1.0868 1.08658 1.08631 1.08597 1.08553 1.08492 1.08407 1.08288 1.08122 1.07896 1.07597 1.0721 1.06723 1.06129 1.05429 1.04644 1.03817 1.03002 1.02256 1.01621 1.01116 1.00738 1.0047 1.00289 1.00172 1.00099 1.00055 1.0003 1.00016 1.00008 1.00004 1.00002 1.00001 1 1 1 1 1 1 1 1 1 1 1 1 1 1 1 1 1 1 1 1 1 1 1 1 1 1 1 1 1 1 1 1 1 1 1 0.999999 0.999998 0.999997 0.999994 0.999988 0.999978 0.999962 0.999933 0.999888 0.999817 0.999712 0.999558 0.999342 0.999049 0.998662 0.998169 0.997557 0.996821 0.995958 0.994973 0.993876 0.99268 0.991405 0.990072 0.988702 0.987318 0.985937 0.984578 0.983253 0.981971 0.980738 0.979556 0.978423 0.977336 0.976293 0.975286 0.974311 0.973364 0.97244 0.971536 0.970648 0.969774 0.968912 0.968062 0.96722 0.966387 0.965562 0.964743 0.96393 0.963122 0.962318 0.961518 0.960721 0.959926 0.959134 0.958343 0.957553 0.956763 0.955973 0.955183 0.954391 0.953598 0.952802 0.952004 0.951203 0.950398 0.949589 0.948775 0.947956 0.947131 0.946299 0.94546 0.944612 0.943756 0.94289 0.942013 0.941125 0.940224 0.939309 0.938379 0.937432 0.936468 0.935483 0.934477 0.933446 0.932389 0.931303 0.930185 0.929031 0.927837 0.926598 0.925309 0.923964 0.922555 0.921074 0.919511 0.917853 0.916086 0.914202 0.912171 0.909949 0.907566 0.905075 0.902204 0.89884 0.895879 0.893019 0.88974 0.887304 0.887304 
1.08925 1.0917 1.09317 1.092 1.09068 1.09176 1.09198 1.09149 1.09143 1.09153 1.09147 1.09138 1.09131 1.09126 1.09119 1.09114 1.09106 1.09101 1.09093 1.09088 1.0908 1.09076 1.09067 1.09064 1.09056 1.09053 1.09045 1.09042 1.09034 1.09032 1.09024 1.09022 1.09014 1.09012 1.09005 1.09002 1.08996 1.08993 1.08987 1.08984 1.08978 1.08974 1.08969 1.08965 1.0896 1.08956 1.08951 1.08946 1.08941 1.08937 1.08931 1.08927 1.08921 1.08916 1.08911 1.08905 1.08899 1.08894 1.08887 1.08881 1.08875 1.08868 1.08861 1.08854 1.08846 1.08838 1.08829 1.0882 1.08811 1.08801 1.0879 1.08778 1.08766 1.08752 1.08738 1.08722 1.08704 1.08685 1.08663 1.08638 1.08608 1.08571 1.08522 1.08456 1.08367 1.08244 1.08078 1.07856 1.07568 1.072 1.06739 1.06174 1.05503 1.04743 1.03928 1.03113 1.02357 1.01704 1.0118 1.00783 1.00501 1.00309 1.00184 1.00106 1.00059 1.00032 1.00017 1.00009 1.00004 1.00002 1.00001 1 1 1 1 1 1 1 1 1 1 1 1 1 1 1 1 1 1 1 1 1 1 1 1 1 1 1 1 1 1 1 1 1 1 1 0.999999 0.999998 0.999997 0.999994 0.999988 0.999978 0.99996 0.999931 0.999885 0.999812 0.999704 0.999547 0.999327 0.999029 0.998637 0.998138 0.997521 0.99678 0.995913 0.994927 0.99383 0.992637 0.991368 0.990042 0.988681 0.987305 0.985935 0.984585 0.983269 0.981995 0.980768 0.979589 0.97846 0.977375 0.976332 0.975325 0.97435 0.973402 0.972477 0.971572 0.970683 0.969808 0.968946 0.968095 0.967253 0.966419 0.965593 0.964774 0.96396 0.963151 0.962347 0.961547 0.96075 0.959955 0.959162 0.958371 0.95758 0.95679 0.956 0.95521 0.954418 0.953624 0.952829 0.952031 0.95123 0.950425 0.949616 0.948803 0.947984 0.947159 0.946328 0.945489 0.944642 0.943787 0.942922 0.942047 0.94116 0.940261 0.939348 0.93842 0.937476 0.936515 0.935534 0.934532 0.933507 0.932456 0.931378 0.930268 0.929124 0.927943 0.926719 0.925448 0.924125 0.922743 0.921295 0.919774 0.918169 0.916467 0.914657 0.912741 0.910692 0.908453 0.906096 0.903724 0.901044 0.898165 0.895602 0.893049 0.890802 0.890802 
1.09162 1.09189 1.09181 1.09113 1.09171 1.09188 1.09136 1.09137 1.09151 1.09142 1.09132 1.09128 1.09124 1.09119 1.09112 1.09107 1.091 1.09095 1.09088 1.09083 1.09075 1.09072 1.09063 1.0906 1.09052 1.09049 1.09041 1.09039 1.09031 1.09029 1.09021 1.09019 1.09011 1.09009 1.09002 1.08999 1.08993 1.0899 1.08984 1.08981 1.08975 1.08971 1.08966 1.08962 1.08957 1.08952 1.08947 1.08943 1.08938 1.08933 1.08928 1.08923 1.08917 1.08912 1.08906 1.08901 1.08895 1.08889 1.08883 1.08876 1.08869 1.08862 1.08855 1.08848 1.0884 1.08831 1.08822 1.08813 1.08803 1.08792 1.08781 1.08769 1.08756 1.08741 1.08726 1.08709 1.0869 1.08669 1.08646 1.08618 1.08585 1.08544 1.08491 1.08421 1.08328 1.08202 1.08036 1.0782 1.07543 1.07193 1.06756 1.06219 1.05577 1.04838 1.04036 1.03222 1.02455 1.01786 1.01242 1.00828 1.00531 1.00328 1.00196 1.00113 1.00063 1.00034 1.00018 1.00009 1.00005 1.00002 1.00001 1 1 1 1 1 1 1 1 1 1 1 1 1 1 1 1 1 1 1 1 1 1 1 1 1 1 1 1 1 1 1 1 1 1 1 0.999999 0.999998 0.999997 0.999994 0.999988 0.999977 0.999959 0.99993 0.999882 0.999809 0.999699 0.99954 0.999317 0.999015 0.998619 0.998116 0.997495 0.996751 0.995883 0.994896 0.993801 0.992612 0.991347 0.990028 0.988675 0.987309 0.985948 0.984607 0.983298 0.98203 0.980808 0.979634 0.978507 0.977424 0.976381 0.975375 0.974399 0.97345 0.972524 0.971618 0.970728 0.969852 0.968989 0.968137 0.967294 0.96646 0.965633 0.964813 0.963999 0.96319 0.962386 0.961585 0.960787 0.959992 0.959199 0.958407 0.957617 0.956827 0.956036 0.955246 0.954454 0.95366 0.952865 0.952067 0.951266 0.950462 0.949653 0.94884 0.948022 0.947198 0.946367 0.945529 0.944684 0.94383 0.942966 0.942092 0.941208 0.940311 0.9394 0.938476 0.937535 0.936578 0.935602 0.934605 0.933587 0.932544 0.931474 0.930374 0.929243 0.928075 0.926869 0.925618 0.92432 0.922968 0.921556 0.920077 0.918526 0.916895 0.91517 0.913343 0.91143 0.909408 0.907214 0.904959 0.902717 0.900327 0.897954 0.895743 0.893732 0.893732 
1.0922 1.0915 1.0913 1.09157 1.09171 1.09133 1.09134 1.09147 1.09135 1.09126 1.09125 1.09122 1.09115 1.0911 1.09105 1.09101 1.09094 1.0909 1.09082 1.09078 1.09071 1.09067 1.09059 1.09056 1.09048 1.09046 1.09037 1.09035 1.09027 1.09025 1.09017 1.09015 1.09008 1.09006 1.08999 1.08996 1.0899 1.08987 1.08981 1.08977 1.08972 1.08968 1.08962 1.08958 1.08953 1.08949 1.08944 1.08939 1.08934 1.08929 1.08924 1.08919 1.08913 1.08908 1.08902 1.08896 1.0889 1.08884 1.08878 1.08871 1.08864 1.08857 1.08849 1.08841 1.08833 1.08824 1.08815 1.08805 1.08795 1.08784 1.08772 1.08759 1.08745 1.0873 1.08714 1.08696 1.08676 1.08653 1.08628 1.08598 1.08562 1.08518 1.08461 1.08387 1.0829 1.08163 1.07998 1.07788 1.07521 1.07188 1.06774 1.06264 1.05648 1.04932 1.04142 1.03328 1.02551 1.01865 1.01303 1.00872 1.00561 1.00348 1.00208 1.0012 1.00067 1.00037 1.00019 1.0001 1.00005 1.00002 1.00001 1 1 1 1 1 1 1 1 1 1 1 1 1 1 1 1 1 1 1 1 1 1 1 1 1 1 1 1 1 1 1 1 1 1 1 0.999999 0.999998 0.999997 0.999993 0.999988 0.999977 0.999959 0.999929 0.999881 0.999807 0.999696 0.999535 0.999311 0.999007 0.998609 0.998104 0.997482 0.996736 0.995868 0.994882 0.993789 0.992603 0.991344 0.990032 0.988687 0.987329 0.985975 0.984642 0.98334 0.982078 0.980861 0.97969 0.978565 0.977483 0.97644 0.975433 0.974457 0.973507 0.97258 0.971673 0.970782 0.969905 0.969041 0.968188 0.967344 0.96651 0.965682 0.964862 0.964047 0.963238 0.962432 0.961631 0.960833 0.960038 0.959244 0.958453 0.957662 0.956872 0.956081 0.95529 0.954499 0.953705 0.95291 0.952112 0.951312 0.950508 0.9497 0.948887 0.948069 0.947246 0.946416 0.94558 0.944736 0.943883 0.943021 0.942149 0.941267 0.940373 0.939466 0.938544 0.937608 0.936655 0.935685 0.934694 0.933683 0.932648 0.931588 0.9305 0.929381 0.928229 0.927041 0.925812 0.92454 0.923218 0.921843 0.92041 0.918911 0.917344 0.915705 0.913979 0.912164 0.91029 0.908332 0.90626 0.904177 0.902096 0.899987 0.897968 0.896133 0.896133 
1.09127 1.09142 1.09148 1.09148 1.09132 1.0913 1.0914 1.09129 1.09121 1.09121 1.09117 1.09112 1.09107 1.09103 1.09098 1.09094 1.09087 1.09084 1.09077 1.09073 1.09066 1.09063 1.09055 1.09052 1.09044 1.09042 1.09034 1.09032 1.09024 1.09022 1.09014 1.09012 1.09005 1.09003 1.08995 1.08993 1.08986 1.08984 1.08977 1.08974 1.08968 1.08965 1.08959 1.08955 1.0895 1.08945 1.0894 1.08935 1.0893 1.08925 1.0892 1.08914 1.08909 1.08903 1.08897 1.08892 1.08885 1.08879 1.08872 1.08866 1.08858 1.08851 1.08843 1.08835 1.08826 1.08817 1.08808 1.08798 1.08787 1.08775 1.08763 1.08749 1.08735 1.08719 1.08702 1.08683 1.08661 1.08637 1.0861 1.08578 1.08539 1.08492 1.08431 1.08354 1.08254 1.08126 1.07963 1.07758 1.07503 1.07186 1.06794 1.06309 1.05719 1.05023 1.04244 1.03431 1.02645 1.01943 1.01363 1.00915 1.0059 1.00366 1.00219 1.00127 1.00071 1.00039 1.0002 1.0001 1.00005 1.00002 1.00001 1.00001 1 1 1 1 1 1 1 1 1 1 1 1 1 1 1 1 1 1 1 1 1 1 1 1 1 1 1 1 1 1 1 1 1 1 0.999999 0.999998 0.999997 0.999993 0.999988 0.999977 0.999959 0.999929 0.999881 0.999807 0.999696 0.999535 0.99931 0.999006 0.998607 0.998102 0.997479 0.996734 0.995867 0.994883 0.993793 0.992612 0.991359 0.990053 0.988715 0.987364 0.986018 0.984691 0.983395 0.982138 0.980925 0.979757 0.978633 0.977552 0.97651 0.975502 0.974525 0.973574 0.972646 0.971737 0.970845 0.969967 0.969102 0.968248 0.967404 0.966568 0.96574 0.964919 0.964104 0.963294 0.962488 0.961686 0.960888 0.960092 0.959299 0.958507 0.957716 0.956925 0.956135 0.955344 0.954552 0.953759 0.952964 0.952167 0.951366 0.950563 0.949755 0.948943 0.948126 0.947304 0.946475 0.94564 0.944797 0.943946 0.943087 0.942217 0.941337 0.940446 0.939542 0.938625 0.937693 0.936745 0.93578 0.934797 0.933793 0.932767 0.931717 0.930641 0.929536 0.928401 0.927231 0.926024 0.924778 0.923487 0.922149 0.920759 0.919314 0.917807 0.916239 0.91461 0.912906 0.911133 0.90932 0.907451 0.905531 0.903622 0.901731 0.899881 0.898173 0.898173 
1.09129 1.09135 1.09133 1.09128 1.09125 1.09129 1.09123 1.09116 1.09116 1.09113 1.09107 1.09104 1.091 1.09096 1.09091 1.09087 1.09081 1.09078 1.09071 1.09068 1.0906 1.09058 1.0905 1.09048 1.0904 1.09038 1.0903 1.09028 1.0902 1.09018 1.0901 1.09009 1.09001 1.08999 1.08992 1.0899 1.08983 1.0898 1.08974 1.08971 1.08965 1.08961 1.08955 1.08951 1.08946 1.08942 1.08936 1.08932 1.08926 1.08921 1.08916 1.0891 1.08904 1.08899 1.08893 1.08887 1.0888 1.08874 1.08867 1.0886 1.08853 1.08845 1.08837 1.08829 1.0882 1.0881 1.088 1.0879 1.08779 1.08766 1.08753 1.08739 1.08724 1.08708 1.08689 1.08669 1.08647 1.08621 1.08592 1.08557 1.08516 1.08466 1.08402 1.08322 1.0822 1.08092 1.07931 1.07732 1.07487 1.07187 1.06816 1.06355 1.05788 1.05112 1.04345 1.03532 1.02737 1.0202 1.01421 1.00957 1.00618 1.00384 1.00231 1.00134 1.00075 1.00041 1.00021 1.00011 1.00005 1.00003 1.00001 1.00001 1 1 1 1 1 1 1 1 1 1 1 1 1 1 1 1 1 1 1 1 1 1 1 1 1 1 1 1 1 1 1 1 1 1 0.999999 0.999998 0.999997 0.999994 0.999988 0.999977 0.999959 0.99993 0.999882 0.999808 0.999697 0.999537 0.999313 0.99901 0.998613 0.998109 0.997488 0.996745 0.99588 0.9949 0.993814 0.992638 0.99139 0.99009 0.988759 0.987415 0.986075 0.984754 0.983464 0.982211 0.981 0.979834 0.978712 0.977631 0.976589 0.97558 0.974602 0.97365 0.97272 0.97181 0.970917 0.970038 0.969172 0.968317 0.967472 0.966635 0.965807 0.964985 0.964169 0.963358 0.962552 0.96175 0.960951 0.960155 0.959361 0.958569 0.957778 0.956987 0.956197 0.955406 0.954614 0.953821 0.953026 0.952229 0.95143 0.950626 0.94982 0.949008 0.948192 0.947371 0.946544 0.94571 0.944869 0.94402 0.943162 0.942295 0.941418 0.94053 0.93963 0.938716 0.937789 0.936847 0.935888 0.934912 0.933916 0.932899 0.931859 0.930796 0.929705 0.928586 0.927435 0.926251 0.92503 0.92377 0.922467 0.921118 0.919722 0.918275 0.916773 0.91522 0.913617 0.911956 0.910249 0.908518 0.906755 0.904984 0.903236 0.901525 0.899924 0.899924 
1.09128 1.09121 1.09119 1.09119 1.09119 1.09116 1.09111 1.09111 1.09108 1.09103 1.09099 1.09097 1.09092 1.09089 1.09084 1.0908 1.09075 1.09072 1.09065 1.09062 1.09055 1.09053 1.09045 1.09043 1.09035 1.09034 1.09025 1.09024 1.09016 1.09015 1.09006 1.09005 1.08997 1.08996 1.08988 1.08986 1.08979 1.08977 1.0897 1.08967 1.08961 1.08958 1.08952 1.08948 1.08942 1.08938 1.08932 1.08928 1.08922 1.08917 1.08911 1.08906 1.089 1.08894 1.08888 1.08882 1.08875 1.08869 1.08862 1.08855 1.08847 1.08839 1.08831 1.08822 1.08813 1.08803 1.08793 1.08782 1.0877 1.08758 1.08744 1.08729 1.08713 1.08696 1.08677 1.08655 1.08632 1.08605 1.08574 1.08537 1.08494 1.0844 1.08374 1.08292 1.08188 1.08059 1.07901 1.07708 1.07474 1.0719 1.06839 1.06401 1.05857 1.05199 1.04443 1.03631 1.02827 1.02094 1.01479 1.00998 1.00646 1.00402 1.00241 1.0014 1.00079 1.00043 1.00022 1.00011 1.00006 1.00003 1.00001 1.00001 1 1 1 1 1 1 1 1 1 1 1 1 1 1 1 1 1 1 1 1 1 1 1 1 1 1 1 1 1 1 1 1 1 1 0.999999 0.999998 0.999997 0.999994 0.999988 0.999978 0.99996 0.999931 0.999884 0.999811 0.999701 0.999543 0.999321 0.99902 0.998625 0.998124 0.997507 0.996768 0.995907 0.994931 0.993851 0.99268 0.991438 0.990145 0.988819 0.987481 0.986147 0.984832 0.983545 0.982296 0.981088 0.979923 0.978802 0.977721 0.976678 0.975668 0.974689 0.973735 0.972804 0.971893 0.970998 0.970118 0.969251 0.968395 0.967549 0.966712 0.965882 0.965059 0.964243 0.963432 0.962625 0.961822 0.961023 0.960227 0.959432 0.95864 0.957848 0.957058 0.956267 0.955476 0.954685 0.953892 0.953098 0.952301 0.951502 0.950699 0.949893 0.949083 0.948268 0.947447 0.946621 0.945789 0.94495 0.944103 0.943247 0.942383 0.941509 0.940624 0.939727 0.938818 0.937896 0.936959 0.936007 0.935038 0.93405 0.933042 0.932014 0.930962 0.929886 0.928783 0.927651 0.926488 0.925293 0.924061 0.922793 0.921484 0.920133 0.918739 0.917301 0.915816 0.914291 0.912727 0.911123 0.909494 0.907852 0.906203 0.904567 0.902965 0.90145 0.90145 
1.09111 1.0911 1.09111 1.0911 1.09108 1.09106 1.09104 1.09102 1.09098 1.09095 1.09092 1.09089 1.09085 1.09082 1.09077 1.09074 1.09068 1.09066 1.09059 1.09057 1.0905 1.09048 1.0904 1.09039 1.09031 1.09029 1.09021 1.0902 1.09012 1.09011 1.09003 1.09001 1.08993 1.08992 1.08984 1.08982 1.08975 1.08973 1.08966 1.08963 1.08957 1.08954 1.08948 1.08944 1.08938 1.08934 1.08928 1.08923 1.08918 1.08913 1.08907 1.08901 1.08895 1.0889 1.08883 1.08877 1.0887 1.08863 1.08856 1.08849 1.08841 1.08833 1.08824 1.08815 1.08806 1.08796 1.08785 1.08774 1.08762 1.08749 1.08734 1.08719 1.08702 1.08684 1.08664 1.08642 1.08617 1.08588 1.08556 1.08517 1.08471 1.08415 1.08347 1.08262 1.08157 1.08029 1.07873 1.07687 1.07464 1.07195 1.06863 1.06447 1.05925 1.05285 1.04539 1.03727 1.02915 1.02167 1.01534 1.01037 1.00672 1.00419 1.00252 1.00146 1.00082 1.00045 1.00023 1.00012 1.00006 1.00003 1.00001 1.00001 1 1 1 1 1 1 1 1 1 1 1 1 1 1 1 1 1 1 1 1 1 1 1 1 1 1 1 1 1 1 1 1 1 1 0.999999 0.999999 0.999997 0.999994 0.999988 0.999978 0.999961 0.999933 0.999887 0.999815 0.999707 0.999551 0.999332 0.999035 0.998645 0.998148 0.997536 0.996803 0.995948 0.994978 0.993903 0.992739 0.991503 0.990216 0.988896 0.987564 0.986235 0.984924 0.983641 0.982394 0.981188 0.980024 0.978902 0.977821 0.976777 0.975767 0.974786 0.973831 0.972898 0.971985 0.971089 0.970208 0.969339 0.968482 0.967635 0.966797 0.965966 0.965143 0.964325 0.963514 0.962706 0.961903 0.961103 0.960307 0.959512 0.958719 0.957928 0.957137 0.956346 0.955556 0.954764 0.953972 0.953177 0.952381 0.951582 0.95078 0.949975 0.949165 0.948352 0.947533 0.946708 0.945877 0.94504 0.944195 0.943342 0.94248 0.941609 0.940727 0.939835 0.938931 0.938013 0.937082 0.936136 0.935174 0.934195 0.933197 0.932179 0.931139 0.930077 0.92899 0.927877 0.926735 0.925564 0.924361 0.923124 0.921852 0.920544 0.919198 0.917815 0.916395 0.914938 0.91345 0.911935 0.910397 0.908847 0.907296 0.905754 0.904239 0.902794 0.902794 
1.09102 1.09101 1.09101 1.091 1.09099 1.09097 1.09096 1.09093 1.0909 1.09088 1.09084 1.09081 1.09078 1.09075 1.0907 1.09067 1.09062 1.09059 1.09054 1.09051 1.09045 1.09043 1.09035 1.09034 1.09026 1.09025 1.09017 1.09016 1.09008 1.09007 1.08999 1.08997 1.0899 1.08988 1.08981 1.08979 1.08972 1.08969 1.08963 1.0896 1.08953 1.0895 1.08944 1.0894 1.08934 1.0893 1.08924 1.08919 1.08914 1.08908 1.08903 1.08897 1.08891 1.08885 1.08878 1.08872 1.08865 1.08858 1.08851 1.08843 1.08835 1.08827 1.08818 1.08809 1.08799 1.08788 1.08777 1.08766 1.08753 1.08739 1.08725 1.08709 1.08691 1.08672 1.08651 1.08628 1.08602 1.08572 1.08537 1.08497 1.08449 1.08391 1.0832 1.08233 1.08128 1.08 1.07848 1.07669 1.07456 1.07201 1.06888 1.06493 1.05992 1.05369 1.04633 1.03822 1.03001 1.02239 1.01589 1.01076 1.00698 1.00435 1.00262 1.00152 1.00085 1.00046 1.00024 1.00012 1.00006 1.00003 1.00001 1.00001 1 1 1 1 1 1 1 1 1 1 1 1 1 1 1 1 1 1 1 1 1 1 1 1 1 1 1 1 1 1 1 1 1 1 0.999999 0.999999 0.999997 0.999994 0.999989 0.999979 0.999963 0.999935 0.99989 0.99982 0.999715 0.999562 0.999347 0.999055 0.998671 0.998181 0.997575 0.996849 0.996002 0.995039 0.993972 0.992814 0.991585 0.990304 0.98899 0.987662 0.986338 0.98503 0.98375 0.982505 0.9813 0.980136 0.979015 0.977932 0.976887 0.975875 0.974892 0.973936 0.973001 0.972087 0.971189 0.970306 0.969437 0.968578 0.96773 0.966891 0.966059 0.965235 0.964417 0.963604 0.962796 0.961993 0.961193 0.960395 0.9596 0.958807 0.958015 0.957225 0.956434 0.955643 0.954852 0.95406 0.953266 0.95247 0.951671 0.95087 0.950066 0.949257 0.948444 0.947627 0.946803 0.945974 0.945139 0.944296 0.943445 0.942586 0.941718 0.940841 0.939952 0.939052 0.93814 0.937215 0.936275 0.93532 0.934349 0.933361 0.932354 0.931326 0.930278 0.929207 0.928111 0.92699 0.925842 0.924665 0.923458 0.922221 0.920951 0.91965 0.918316 0.916951 0.915556 0.914135 0.912691 0.911231 0.909759 0.908287 0.906822 0.905379 0.903993 0.903993 
1.09094 1.09092 1.09091 1.09091 1.0909 1.09089 1.09087 1.09085 1.09082 1.0908 1.09077 1.09074 1.0907 1.09068 1.09063 1.09061 1.09056 1.09053 1.09048 1.09046 1.09039 1.09037 1.0903 1.09029 1.09021 1.0902 1.09012 1.09011 1.09003 1.09002 1.08994 1.08993 1.08985 1.08984 1.08977 1.08975 1.08968 1.08965 1.08959 1.08956 1.08949 1.08946 1.0894 1.08936 1.0893 1.08926 1.0892 1.08915 1.08909 1.08904 1.08898 1.08892 1.08886 1.0888 1.08873 1.08867 1.0886 1.08853 1.08845 1.08837 1.08829 1.0882 1.08811 1.08802 1.08792 1.08781 1.08769 1.08757 1.08744 1.0873 1.08715 1.08698 1.0868 1.0866 1.08638 1.08614 1.08587 1.08555 1.08519 1.08477 1.08427 1.08367 1.08294 1.08206 1.081 1.07974 1.07825 1.07652 1.0745 1.0721 1.06915 1.0654 1.06059 1.05453 1.04726 1.03915 1.03085 1.02308 1.01642 1.01114 1.00723 1.00451 1.00271 1.00157 1.00088 1.00048 1.00025 1.00013 1.00006 1.00003 1.00001 1.00001 1 1 1 1 1 1 1 1 1 1 1 1 1 1 1 1 1 1 1 1 1 1 1 1 1 1 1 1 1 1 1 1 1 1 0.999999 0.999999 0.999997 0.999995 0.999989 0.99998 0.999964 0.999938 0.999894 0.999827 0.999725 0.999576 0.999366 0.99908 0.998702 0.99822 0.997624 0.996906 0.996068 0.995114 0.994055 0.992906 0.991683 0.990408 0.9891 0.987777 0.986456 0.985151 0.983873 0.982629 0.981424 0.980261 0.979138 0.978055 0.977008 0.975994 0.975009 0.974051 0.973115 0.972198 0.971299 0.970415 0.969543 0.968684 0.967834 0.966994 0.966161 0.965336 0.964517 0.963704 0.962895 0.962091 0.96129 0.960493 0.959697 0.958904 0.958112 0.957321 0.95653 0.955739 0.954948 0.954156 0.953363 0.952567 0.951769 0.950969 0.950165 0.949358 0.948546 0.947729 0.946908 0.94608 0.945247 0.944406 0.943558 0.942702 0.941837 0.940963 0.940079 0.939183 0.938276 0.937357 0.936424 0.935476 0.934514 0.933534 0.932538 0.931522 0.930487 0.929431 0.928353 0.927251 0.926125 0.924973 0.923794 0.922588 0.921355 0.920093 0.918803 0.917487 0.916146 0.914783 0.9134 0.912004 0.910599 0.909192 0.907791 0.906408 0.905073 0.905073 