# vtk DataFile Version 3.0
LBM simulation at step 280
ASCII
DATASET STRUCTURED_POINTS
DIMENSIONS 128 128 1
ORIGIN 0 0 0
SPACING 1 1 1
POINT_DATA 16384
SCALARS density float
LOOKUP_TABLE default
0.943711 1.00847 1.01022 1.00702 1.00734 1.00766 1.00767 1.00774 1.00787 1.00803 1.00819 1.00837 1.00855 1.00874 1.00893 1.00912 1.00931 1.00951 1.0097 1.00988 1.01007 1.01025 1.01042 1.01059 1.01074 1.01088 1.01101 1.01112 1.0112 1.01125 1.01127 1.01126 1.0112 1.0111 1.01096 1.01076 1.01052 1.01022 1.00987 1.00947 1.00902 1.00852 1.00797 1.00737 1.00674 1.00606 1.00535 1.0046 1.00382 1.00302 1.00219 1.00133 1.00045 0.999553 0.998635 0.9977 0.996748 0.995781 0.9948 0.993807 0.992802 0.991787 0.99076 0.989724 0.988677 0.987618 0.986547 0.985462 0.984359 0.983238 0.982093 0.980923 0.979723 0.978491 0.977225 0.975923 0.974586 0.973216 0.971818 0.970397 0.968961 0.967518 0.966077 0.964646 0.963234 0.961847 0.96049 0.959166 0.957875 0.956619 0.955395 0.954203 0.95304 0.951906 0.950801 0.949725 0.948679 0.947664 0.94668 0.94573 0.944811 0.943925 0.943068 0.942238 0.941432 0.940647 0.93988 0.939126 0.938384 0.937649 0.936919 0.936191 0.935462 0.934731 0.933994 0.933249 0.932493 0.931722 0.930933 0.930123 0.929272 0.928362 0.927427 0.926766 0.924678 0.922958 0.938709 0.938709 
1.01089 1.0091 1.00538 1.0067 1.00764 1.00768 1.00768 1.00777 1.00789 1.00803 1.00819 1.00836 1.00854 1.00872 1.00891 1.00909 1.00928 1.00947 1.00966 1.00984 1.01002 1.0102 1.01037 1.01053 1.01069 1.01083 1.01095 1.01105 1.01113 1.01118 1.0112 1.01118 1.01112 1.01102 1.01087 1.01068 1.01043 1.01013 1.00978 1.00938 1.00892 1.00842 1.00787 1.00727 1.00664 1.00596 1.00525 1.0045 1.00372 1.00292 1.00209 1.00123 1.00035 0.999457 0.998541 0.997607 0.996658 0.995693 0.994715 0.993724 0.992721 0.991707 0.990683 0.989648 0.988602 0.987545 0.986476 0.985392 0.984291 0.983172 0.98203 0.980864 0.979669 0.978443 0.977184 0.975892 0.974565 0.973207 0.971821 0.970412 0.968988 0.967555 0.966123 0.964699 0.963291 0.961906 0.960549 0.959222 0.957928 0.956667 0.955438 0.95424 0.953073 0.951936 0.950828 0.949751 0.948704 0.947689 0.946707 0.945757 0.944839 0.943952 0.943094 0.942263 0.941455 0.940667 0.939896 0.939139 0.938391 0.937651 0.936916 0.936182 0.935447 0.934709 0.933964 0.93321 0.932444 0.931661 0.930858 0.930034 0.929178 0.928232 0.927114 0.92618 0.926436 0.92704 0.924694 0.924694 
1.01823 1.00608 1.00552 1.00808 1.00779 1.00751 1.00766 1.00783 1.00795 1.00807 1.00821 1.00838 1.00854 1.00872 1.00889 1.00907 1.00925 1.00943 1.00962 1.00979 1.00997 1.01014 1.01031 1.01047 1.01062 1.01076 1.01088 1.01097 1.01105 1.0111 1.01111 1.01109 1.01103 1.01092 1.01077 1.01056 1.01031 1.01001 1.00965 1.00924 1.00878 1.00827 1.00772 1.00712 1.00648 1.0058 1.00509 1.00434 1.00357 1.00276 1.00193 1.00108 1.0002 0.999304 0.998389 0.997457 0.99651 0.995548 0.994572 0.993583 0.992582 0.991571 0.990548 0.989515 0.988471 0.987415 0.986347 0.985264 0.984166 0.983049 0.981911 0.980748 0.97956 0.978341 0.977092 0.97581 0.974497 0.973153 0.971783 0.97039 0.968981 0.967563 0.966144 0.964732 0.963333 0.961955 0.960602 0.959277 0.957983 0.95672 0.955489 0.954288 0.953119 0.951979 0.95087 0.949792 0.948745 0.947731 0.94675 0.945801 0.944885 0.943999 0.943141 0.942309 0.9415 0.94071 0.939937 0.939176 0.938425 0.937681 0.936941 0.936203 0.935463 0.934719 0.933969 0.933208 0.932435 0.931646 0.930835 0.929984 0.929098 0.928231 0.927363 0.926247 0.925386 0.923274 0.916735 0.916735 
1.00333 1.00779 1.00985 1.00763 1.00709 1.0077 1.0079 1.0079 1.00798 1.00812 1.00826 1.00841 1.00856 1.00872 1.00889 1.00905 1.00923 1.0094 1.00957 1.00974 1.00991 1.01008 1.01024 1.0104 1.01055 1.01068 1.01079 1.01089 1.01096 1.011 1.011 1.01097 1.0109 1.01079 1.01063 1.01042 1.01015 1.00984 1.00948 1.00906 1.0086 1.00808 1.00753 1.00692 1.00628 1.0056 1.00488 1.00414 1.00336 1.00255 1.00172 1.00087 0.999993 0.999099 0.998186 0.997256 0.996311 0.995351 0.994378 0.993392 0.992394 0.991385 0.990364 0.989333 0.988291 0.987236 0.98617 0.985089 0.983992 0.982877 0.981741 0.980583 0.9794 0.978189 0.976949 0.975679 0.974379 0.973052 0.971699 0.970325 0.968935 0.967537 0.966136 0.96474 0.963356 0.96199 0.960646 0.959328 0.958038 0.956778 0.955548 0.954348 0.953178 0.952038 0.950928 0.94985 0.948805 0.947792 0.946813 0.945866 0.944951 0.944067 0.94321 0.942378 0.941569 0.940778 0.940002 0.939239 0.938485 0.937739 0.936996 0.936254 0.935511 0.934764 0.93401 0.933247 0.93247 0.931675 0.930863 0.93003 0.929148 0.928193 0.927295 0.926388 0.925095 0.922872 0.918693 0.918693 
1.00765 1.00848 1.00766 1.00731 1.00796 1.00797 1.00785 1.00795 1.00809 1.0082 1.00832 1.00845 1.00859 1.00874 1.00889 1.00904 1.0092 1.00937 1.00953 1.00969 1.00986 1.01002 1.01018 1.01033 1.01047 1.01059 1.0107 1.01079 1.01085 1.01088 1.01088 1.01084 1.01076 1.01064 1.01046 1.01024 1.00997 1.00964 1.00927 1.00884 1.00837 1.00785 1.00729 1.00668 1.00603 1.00535 1.00463 1.00388 1.0031 1.0023 1.00147 1.00062 0.999742 0.998849 0.997939 0.997012 0.996069 0.995113 0.994142 0.993159 0.992164 0.991157 0.990139 0.98911 0.988069 0.987016 0.98595 0.98487 0.983774 0.98266 0.981527 0.980372 0.979193 0.977989 0.976758 0.975501 0.974216 0.972906 0.971573 0.970221 0.968855 0.96748 0.966102 0.964728 0.963363 0.962014 0.960684 0.959377 0.958095 0.956841 0.955614 0.954417 0.953248 0.95211 0.951002 0.949926 0.948883 0.947873 0.946896 0.945952 0.94504 0.944157 0.943302 0.942471 0.941661 0.94087 0.940093 0.939329 0.938573 0.937825 0.93708 0.936336 0.935592 0.934844 0.93409 0.933327 0.932553 0.931762 0.930947 0.93011 0.92926 0.928364 0.927401 0.926322 0.92473 0.923335 0.922228 0.922228 
1.00876 1.00785 1.00749 1.00818 1.00812 1.00787 1.008 1.00814 1.00821 1.00828 1.00839 1.00851 1.00863 1.00876 1.0089 1.00904 1.00919 1.00934 1.00949 1.00965 1.0098 1.00996 1.01011 1.01025 1.01039 1.01051 1.01061 1.01069 1.01074 1.01076 1.01075 1.0107 1.0106 1.01046 1.01028 1.01004 1.00975 1.00942 1.00903 1.00859 1.00811 1.00758 1.00701 1.0064 1.00575 1.00506 1.00434 1.00359 1.00281 1.00201 1.00118 1.00033 0.999455 0.998565 0.997657 0.996733 0.995793 0.994839 0.993872 0.992892 0.9919 0.990895 0.98988 0.988852 0.987813 0.986761 0.985695 0.984615 0.98352 0.982407 0.981275 0.980122 0.978948 0.977751 0.976529 0.975284 0.974015 0.972725 0.971414 0.970087 0.968747 0.967398 0.966047 0.964698 0.963357 0.962028 0.960716 0.959423 0.958153 0.956907 0.955687 0.954494 0.95333 0.952195 0.95109 0.950017 0.948978 0.947971 0.946998 0.946058 0.94515 0.94427 0.943417 0.942588 0.941779 0.940988 0.940211 0.939446 0.93869 0.93794 0.937195 0.936451 0.935707 0.934961 0.934209 0.933449 0.932679 0.931896 0.931097 0.93027 0.929418 0.928544 0.9276 0.9266 0.925378 0.924217 0.923548 0.923548 
1.00754 1.008 1.00825 1.00818 1.008 1.00815 1.00826 1.00826 1.00831 1.00841 1.0085 1.00859 1.00869 1.0088 1.00892 1.00905 1.00918 1.00932 1.00946 1.00961 1.00976 1.00991 1.01005 1.01018 1.01031 1.01042 1.01051 1.01058 1.01062 1.01063 1.01061 1.01054 1.01043 1.01028 1.01007 1.00982 1.00952 1.00917 1.00877 1.00832 1.00783 1.00729 1.00671 1.00609 1.00544 1.00475 1.00402 1.00327 1.00249 1.00169 1.00086 1.00001 0.999143 0.998255 0.99735 0.996428 0.995492 0.994542 0.993577 0.9926 0.991611 0.990609 0.989595 0.988569 0.98753 0.986479 0.985413 0.984333 0.983237 0.982124 0.980993 0.979843 0.978673 0.977482 0.976271 0.975039 0.973787 0.972517 0.97123 0.96993 0.968618 0.967299 0.965977 0.964657 0.963342 0.962036 0.960744 0.959468 0.958212 0.956977 0.955766 0.95458 0.953421 0.95229 0.951191 0.950123 0.949088 0.948086 0.947119 0.946184 0.94528 0.944404 0.943555 0.942728 0.941922 0.941131 0.940355 0.93959 0.938834 0.938085 0.93734 0.936598 0.935856 0.935113 0.934366 0.933613 0.932851 0.932077 0.93129 0.930488 0.929662 0.928811 0.927892 0.926939 0.926051 0.925107 0.924285 0.924285 
1.00798 1.00825 1.00831 1.00823 1.00832 1.00841 1.00838 1.00841 1.00849 1.00854 1.0086 1.00868 1.00877 1.00886 1.00896 1.00907 1.00919 1.00932 1.00945 1.00959 1.00972 1.00986 1.01 1.01012 1.01024 1.01034 1.01042 1.01048 1.01051 1.0105 1.01046 1.01038 1.01025 1.01008 1.00986 1.00959 1.00927 1.0089 1.00849 1.00803 1.00752 1.00698 1.00639 1.00577 1.00511 1.00441 1.00369 1.00294 1.00216 1.00136 1.00053 0.999682 0.998815 0.99793 0.997027 0.996109 0.995176 0.994229 0.993268 0.992294 0.991307 0.990307 0.989295 0.98827 0.987232 0.98618 0.985113 0.984032 0.982935 0.981822 0.980691 0.979543 0.978377 0.977194 0.975993 0.974775 0.973541 0.972292 0.97103 0.969757 0.968476 0.967188 0.965898 0.964607 0.963321 0.962041 0.960771 0.959514 0.958273 0.957051 0.95585 0.954672 0.95352 0.952396 0.951302 0.95024 0.949212 0.948217 0.947255 0.946327 0.945429 0.944559 0.943714 0.942892 0.942088 0.9413 0.940525 0.939762 0.939007 0.938259 0.937516 0.936777 0.936039 0.9353 0.934559 0.933814 0.933063 0.932303 0.931532 0.93075 0.92995 0.929134 0.9283 0.927431 0.926614 0.925817 0.925027 0.925027 
1.00839 1.00845 1.00846 1.00853 1.00859 1.00856 1.00858 1.00863 1.00866 1.00868 1.00873 1.00879 1.00886 1.00893 1.00902 1.00911 1.00922 1.00933 1.00945 1.00958 1.0097 1.00983 1.00996 1.01008 1.01018 1.01027 1.01034 1.01039 1.0104 1.01038 1.01032 1.01022 1.01007 1.00988 1.00964 1.00935 1.00902 1.00863 1.0082 1.00773 1.00721 1.00666 1.00606 1.00543 1.00477 1.00407 1.00335 1.0026 1.00182 1.00102 1.00019 0.999346 0.998482 0.9976 0.996701 0.995786 0.994856 0.993912 0.992954 0.991983 0.990998 0.99 0.988989 0.987964 0.986926 0.985873 0.984805 0.983722 0.982624 0.98151 0.980379 0.979233 0.978071 0.976895 0.975704 0.9745 0.973284 0.972058 0.970822 0.969578 0.968327 0.967072 0.965814 0.964555 0.963298 0.962045 0.960798 0.959562 0.958338 0.95713 0.95594 0.954772 0.953628 0.952511 0.951425 0.95037 0.949348 0.948361 0.947407 0.946487 0.945596 0.944733 0.943894 0.943077 0.942277 0.941493 0.940721 0.93996 0.939208 0.938462 0.937722 0.936986 0.936253 0.93552 0.934787 0.934051 0.933312 0.932567 0.931816 0.931056 0.930286 0.929502 0.928723 0.927943 0.927161 0.926439 0.925753 0.925753 
1.00853 1.00872 1.00876 1.0088 1.00879 1.0088 1.00883 1.00883 1.00883 1.00885 1.00888 1.00892 1.00896 1.00902 1.00909 1.00917 1.00926 1.00936 1.00947 1.00959 1.0097 1.00982 1.00994 1.01004 1.01014 1.01022 1.01027 1.0103 1.01029 1.01026 1.01018 1.01006 1.00989 1.00968 1.00942 1.00912 1.00876 1.00836 1.00792 1.00743 1.00691 1.00634 1.00574 1.0051 1.00444 1.00374 1.00301 1.00226 1.00148 1.00068 0.999857 0.999015 0.998153 0.997274 0.996379 0.995467 0.994541 0.9936 0.992645 0.991676 0.990693 0.989696 0.988686 0.987661 0.986621 0.985567 0.984497 0.983412 0.982311 0.981195 0.980065 0.97892 0.977763 0.976593 0.975413 0.974224 0.973027 0.971823 0.970613 0.969398 0.968179 0.966956 0.96573 0.964504 0.963276 0.962051 0.960829 0.959614 0.958408 0.957215 0.956037 0.954879 0.953744 0.952636 0.951557 0.95051 0.949497 0.948518 0.947574 0.946662 0.94578 0.944925 0.944094 0.943282 0.942489 0.941709 0.940941 0.940184 0.939435 0.938693 0.937957 0.937226 0.936498 0.935772 0.935047 0.934322 0.933595 0.932866 0.932133 0.931396 0.930656 0.929911 0.929167 0.928439 0.927714 0.927025 0.926387 0.926387 
1.00883 1.00902 1.00905 1.00906 1.00906 1.00907 1.00906 1.00904 1.00904 1.00904 1.00904 1.00906 1.00909 1.00913 1.00918 1.00925 1.00932 1.00941 1.00951 1.00962 1.00972 1.00983 1.00993 1.01003 1.01011 1.01017 1.01021 1.01022 1.0102 1.01014 1.01005 1.00991 1.00972 1.00949 1.00921 1.00889 1.00852 1.0081 1.00764 1.00715 1.00661 1.00603 1.00543 1.00478 1.00411 1.00341 1.00269 1.00193 1.00116 1.00036 0.999536 0.998696 0.997838 0.996962 0.99607 0.995162 0.994238 0.9933 0.992348 0.991381 0.990399 0.989403 0.988392 0.987366 0.986325 0.985268 0.984195 0.983107 0.982004 0.980887 0.979756 0.978613 0.977459 0.976297 0.975128 0.973954 0.972775 0.971594 0.97041 0.969224 0.968036 0.966845 0.965653 0.964457 0.963261 0.962063 0.960866 0.959672 0.958485 0.957306 0.956142 0.954994 0.953869 0.952769 0.951699 0.950661 0.949657 0.948689 0.947754 0.946852 0.94598 0.945135 0.944312 0.943509 0.942722 0.941948 0.941186 0.940434 0.939689 0.938952 0.93822 0.937494 0.936772 0.936054 0.935338 0.934623 0.933909 0.933195 0.932481 0.931765 0.93105 0.930339 0.929628 0.92893 0.928251 0.927591 0.926969 0.926969 
1.00916 1.00933 1.00934 1.00935 1.00934 1.00932 1.0093 1.00928 1.00925 1.00923 1.00922 1.00922 1.00923 1.00925 1.00929 1.00935 1.00941 1.00949 1.00957 1.00967 1.00976 1.00986 1.00995 1.01003 1.0101 1.01014 1.01017 1.01016 1.01012 1.01004 1.00993 1.00977 1.00956 1.00931 1.00901 1.00867 1.00829 1.00786 1.00738 1.00687 1.00633 1.00574 1.00513 1.00448 1.00381 1.00311 1.00238 1.00162 1.00085 1.00005 0.999234 0.998397 0.997541 0.996668 0.995779 0.994874 0.993954 0.993018 0.992068 0.991102 0.990122 0.989126 0.988114 0.987086 0.986042 0.984982 0.983906 0.982814 0.981708 0.980589 0.979457 0.978316 0.977167 0.976013 0.974855 0.973695 0.972535 0.971376 0.970218 0.96906 0.967903 0.966745 0.965584 0.96442 0.963253 0.962083 0.96091 0.959738 0.958569 0.957406 0.956254 0.955118 0.954003 0.952912 0.951851 0.950823 0.94983 0.948871 0.947948 0.947057 0.946196 0.945362 0.944549 0.943755 0.942977 0.942211 0.941455 0.940708 0.939969 0.939237 0.938511 0.937791 0.937076 0.936365 0.935658 0.934954 0.934253 0.933553 0.932856 0.932161 0.931468 0.930781 0.9301 0.929429 0.928775 0.928141 0.92753 0.92753 
1.00945 1.00964 1.00965 1.00965 1.00963 1.00959 1.00956 1.00952 1.00948 1.00944 1.00941 1.0094 1.00939 1.0094 1.00943 1.00947 1.00952 1.00959 1.00966 1.00974 1.00982 1.00991 1.00998 1.01005 1.0101 1.01013 1.01014 1.01011 1.01005 1.00996 1.00982 1.00964 1.00942 1.00915 1.00883 1.00847 1.00807 1.00763 1.00714 1.00662 1.00607 1.00548 1.00485 1.0042 1.00353 1.00282 1.00209 1.00134 1.00057 0.99977 0.998954 0.99812 0.997267 0.996397 0.995511 0.994609 0.993691 0.992758 0.991809 0.990844 0.989864 0.988867 0.987853 0.986823 0.985776 0.984712 0.983632 0.982536 0.981427 0.980305 0.979174 0.978035 0.976891 0.975744 0.974597 0.973453 0.972312 0.971175 0.970042 0.968913 0.967785 0.966657 0.965528 0.964394 0.963256 0.962113 0.960965 0.959814 0.958663 0.957516 0.956377 0.955252 0.954147 0.953067 0.952015 0.950997 0.950014 0.949067 0.948156 0.947277 0.946429 0.945606 0.944805 0.944022 0.943253 0.942496 0.941748 0.941008 0.940276 0.93955 0.93883 0.938116 0.937408 0.936705 0.936007 0.935313 0.934624 0.933938 0.933256 0.932579 0.931906 0.931239 0.930581 0.929933 0.929299 0.928682 0.928085 0.928085 
1.00976 1.00996 1.00996 1.00995 1.00991 1.00987 1.00982 1.00977 1.00971 1.00967 1.00962 1.00959 1.00957 1.00957 1.00958 1.00961 1.00965 1.0097 1.00977 1.00984 1.00991 1.00998 1.01004 1.01009 1.01012 1.01013 1.01012 1.01008 1.01 1.00988 1.00973 1.00953 1.00929 1.009 1.00867 1.00829 1.00788 1.00742 1.00693 1.00639 1.00583 1.00523 1.0046 1.00395 1.00327 1.00256 1.00183 1.00108 1.00031 0.999514 0.9987 0.997868 0.997017 0.99615 0.995267 0.994367 0.993451 0.99252 0.991572 0.990607 0.989626 0.988628 0.987612 0.986578 0.985527 0.984459 0.983374 0.982275 0.981162 0.980039 0.978908 0.977771 0.976632 0.975494 0.974359 0.97323 0.972108 0.970993 0.969885 0.968783 0.967684 0.966586 0.965487 0.964383 0.963273 0.962155 0.961031 0.959901 0.958768 0.957636 0.956511 0.955398 0.954303 0.953233 0.952192 0.951184 0.950212 0.949278 0.948379 0.947513 0.946678 0.945868 0.94508 0.944309 0.943551 0.942804 0.942065 0.941334 0.940609 0.93989 0.939177 0.93847 0.937769 0.937074 0.936385 0.935701 0.935023 0.93435 0.933682 0.93302 0.932364 0.931715 0.931075 0.930445 0.929827 0.929225 0.92864 0.92864 
1.01007 1.01028 1.01027 1.01025 1.01021 1.01015 1.01009 1.01003 1.00996 1.0099 1.00985 1.0098 1.00977 1.00976 1.00976 1.00977 1.0098 1.00984 1.00989 1.00995 1.01001 1.01006 1.0101 1.01014 1.01015 1.01015 1.01012 1.01005 1.00996 1.00982 1.00965 1.00943 1.00917 1.00887 1.00852 1.00814 1.00771 1.00724 1.00673 1.00619 1.00562 1.00502 1.00438 1.00373 1.00304 1.00233 1.0016 1.00085 1.00008 0.999284 0.998472 0.997641 0.996793 0.995928 0.995047 0.994149 0.993234 0.992304 0.991356 0.990391 0.989408 0.988407 0.987388 0.986351 0.985295 0.984222 0.983133 0.98203 0.980914 0.97979 0.978659 0.977526 0.976393 0.975265 0.974142 0.973029 0.971926 0.970833 0.969749 0.968673 0.967602 0.966533 0.965463 0.964387 0.963304 0.962212 0.961111 0.960001 0.958886 0.95777 0.956658 0.955557 0.954473 0.953413 0.952382 0.951386 0.950426 0.949503 0.948618 0.947766 0.946945 0.946149 0.945375 0.944616 0.943871 0.943135 0.942407 0.941685 0.940969 0.940258 0.939553 0.938853 0.93816 0.937472 0.936791 0.936117 0.935449 0.934787 0.934132 0.933483 0.932842 0.932208 0.931583 0.930968 0.930365 0.929775 0.9292 0.9292 
1.01036 1.01059 1.01057 1.01054 1.0105 1.01044 1.01037 1.01029 1.01022 1.01015 1.01008 1.01003 1.00999 1.00997 1.00995 1.00996 1.00997 1.01 1.01004 1.01008 1.01012 1.01016 1.01019 1.0102 1.0102 1.01018 1.01012 1.01004 1.00993 1.00978 1.00959 1.00935 1.00908 1.00876 1.0084 1.008 1.00756 1.00708 1.00657 1.00602 1.00544 1.00483 1.00419 1.00353 1.00284 1.00213 1.0014 1.00065 0.999873 0.999081 0.99827 0.99744 0.996594 0.99573 0.99485 0.993953 0.993039 0.992108 0.991159 0.990193 0.989208 0.988204 0.98718 0.986138 0.985078 0.984 0.982906 0.981799 0.980682 0.979557 0.978428 0.977299 0.976174 0.975055 0.973947 0.97285 0.971766 0.970694 0.969635 0.968585 0.967541 0.9665 0.965457 0.964408 0.963351 0.962284 0.961205 0.960115 0.959018 0.957918 0.95682 0.955731 0.954658 0.953609 0.952589 0.951603 0.950655 0.949746 0.948874 0.948037 0.947231 0.94645 0.94569 0.944946 0.944214 0.943491 0.942774 0.942063 0.941356 0.940654 0.939957 0.939265 0.938579 0.9379 0.937227 0.936561 0.935903 0.935251 0.934607 0.93397 0.933342 0.932721 0.932109 0.931507 0.930916 0.930336 0.929771 0.929771 
1.01065 1.01089 1.01087 1.01084 1.01078 1.01072 1.01064 1.01056 1.01048 1.01041 1.01034 1.01027 1.01023 1.01019 1.01017 1.01016 1.01017 1.01018 1.0102 1.01023 1.01025 1.01027 1.01028 1.01028 1.01026 1.01022 1.01015 1.01005 1.00991 1.00975 1.00954 1.00929 1.009 1.00867 1.0083 1.00789 1.00744 1.00695 1.00643 1.00587 1.00529 1.00467 1.00403 1.00336 1.00267 1.00196 1.00122 1.00047 0.999696 0.998904 0.998092 0.997264 0.996417 0.995554 0.994674 0.993777 0.992862 0.99193 0.990979 0.99001 0.989021 0.988013 0.986985 0.985938 0.984872 0.983789 0.982691 0.981581 0.980462 0.979338 0.978212 0.977089 0.975972 0.974865 0.973771 0.972691 0.971627 0.970578 0.969542 0.968517 0.967499 0.966485 0.965469 0.964447 0.963415 0.962371 0.961315 0.960245 0.959166 0.958081 0.956997 0.955921 0.95486 0.953822 0.952813 0.951839 0.950904 0.950008 0.94915 0.948327 0.947536 0.946771 0.946027 0.945298 0.94458 0.943871 0.943167 0.942467 0.941771 0.941079 0.94039 0.939707 0.939029 0.938358 0.937693 0.937035 0.936385 0.935743 0.935109 0.934483 0.933865 0.933256 0.932655 0.932065 0.931484 0.930914 0.930357 0.930357 
1.01093 1.01119 1.01116 1.01112 1.01107 1.011 1.01092 1.01084 1.01076 1.01067 1.0106 1.01053 1.01048 1.01043 1.0104 1.01038 1.01037 1.01038 1.01038 1.01039 1.0104 1.0104 1.01039 1.01037 1.01033 1.01027 1.01018 1.01006 1.00991 1.00973 1.00951 1.00925 1.00895 1.00861 1.00822 1.0078 1.00734 1.00685 1.00632 1.00575 1.00516 1.00454 1.00389 1.00322 1.00253 1.00181 1.00108 1.00032 0.999545 0.998751 0.997939 0.997109 0.996262 0.995398 0.994517 0.993618 0.992701 0.991766 0.990812 0.989839 0.988845 0.987831 0.986797 0.985744 0.984673 0.983585 0.982484 0.981372 0.980252 0.97913 0.978009 0.976893 0.975786 0.974692 0.973613 0.972552 0.971508 0.970481 0.969469 0.968469 0.967477 0.966488 0.965498 0.964502 0.963495 0.962475 0.96144 0.960391 0.95933 0.958261 0.957192 0.956129 0.95508 0.954053 0.953056 0.952095 0.951172 0.950289 0.949446 0.948639 0.947864 0.947115 0.946386 0.945673 0.944971 0.944276 0.943586 0.942899 0.942214 0.941532 0.940854 0.940179 0.93951 0.938846 0.938189 0.93754 0.936898 0.936264 0.935639 0.935022 0.934414 0.933815 0.933224 0.932643 0.932072 0.931512 0.930963 0.930963 
1.01119 1.01147 1.01144 1.0114 1.01135 1.01128 1.0112 1.01112 1.01103 1.01095 1.01087 1.0108 1.01074 1.01069 1.01065 1.01062 1.0106 1.01059 1.01057 1.01057 1.01055 1.01054 1.01051 1.01047 1.01041 1.01033 1.01022 1.01009 1.00992 1.00973 1.00949 1.00922 1.00891 1.00856 1.00817 1.00774 1.00727 1.00677 1.00623 1.00566 1.00506 1.00444 1.00379 1.00311 1.00241 1.0017 1.00096 1.0002 0.999419 0.998623 0.997808 0.996977 0.996127 0.995261 0.994376 0.993474 0.992553 0.991613 0.990654 0.989675 0.988675 0.987654 0.986614 0.985554 0.984477 0.983385 0.98228 0.981166 0.980048 0.978929 0.977814 0.976707 0.975612 0.974533 0.973471 0.972428 0.971406 0.970401 0.969413 0.968438 0.967471 0.966508 0.965544 0.964573 0.963591 0.962594 0.961581 0.960552 0.95951 0.958458 0.957404 0.956355 0.955319 0.954304 0.95332 0.952371 0.951461 0.950592 0.949764 0.948972 0.948213 0.94748 0.946769 0.946072 0.945386 0.944707 0.944031 0.943357 0.942685 0.942014 0.941346 0.940681 0.94002 0.939365 0.938716 0.938074 0.93744 0.936815 0.936198 0.935589 0.93499 0.934399 0.933818 0.933246 0.932684 0.932132 0.931591 0.931591 
1.01145 1.01175 1.01172 1.01168 1.01162 1.01155 1.01148 1.0114 1.01132 1.01123 1.01115 1.01108 1.01102 1.01096 1.01091 1.01087 1.01084 1.01081 1.01078 1.01075 1.01072 1.01069 1.01064 1.01058 1.0105 1.0104 1.01028 1.01013 1.00995 1.00974 1.00949 1.00921 1.00889 1.00853 1.00813 1.0077 1.00722 1.00672 1.00617 1.0056 1.005 1.00437 1.00371 1.00303 1.00233 1.0016 1.00086 1.0001 0.999317 0.998517 0.997699 0.996864 0.996011 0.99514 0.99425 0.993343 0.992416 0.991469 0.990502 0.989515 0.988507 0.987478 0.98643 0.985363 0.98428 0.983183 0.982076 0.980962 0.979846 0.978732 0.977624 0.976528 0.975447 0.974383 0.97334 0.972318 0.971316 0.970335 0.969371 0.968421 0.96748 0.966543 0.965604 0.964658 0.9637 0.962727 0.961736 0.960728 0.959705 0.958671 0.957633 0.956599 0.955576 0.954576 0.953604 0.952668 0.951772 0.950917 0.950104 0.949328 0.948585 0.947869 0.947175 0.946495 0.945826 0.945162 0.944502 0.943842 0.943184 0.942525 0.941868 0.941213 0.940562 0.939915 0.939274 0.93864 0.938013 0.937395 0.936786 0.936186 0.935594 0.935012 0.934439 0.933875 0.933321 0.932777 0.932243 0.932243 
1.01171 1.01201 1.01199 1.01194 1.01189 1.01183 1.01176 1.01168 1.0116 1.01152 1.01145 1.01137 1.0113 1.01124 1.01118 1.01113 1.01109 1.01104 1.011 1.01095 1.0109 1.01084 1.01078 1.0107 1.0106 1.01048 1.01035 1.01018 1.00999 1.00977 1.00951 1.00922 1.00889 1.00853 1.00812 1.00768 1.0072 1.00669 1.00614 1.00556 1.00495 1.00432 1.00366 1.00297 1.00227 1.00154 1.00079 1.00003 0.999239 0.998435 0.997612 0.996771 0.995912 0.995034 0.994138 0.993222 0.992286 0.99133 0.990354 0.989356 0.988338 0.9873 0.986242 0.985167 0.984078 0.982976 0.981867 0.980753 0.979641 0.978533 0.977435 0.976351 0.975285 0.974239 0.973215 0.972215 0.971236 0.970279 0.96934 0.968415 0.9675 0.966588 0.965675 0.964754 0.963821 0.962872 0.961904 0.960917 0.959914 0.958899 0.957878 0.95686 0.955852 0.954866 0.953908 0.952986 0.952104 0.951264 0.950466 0.949706 0.94898 0.948281 0.947604 0.946942 0.94629 0.945643 0.944998 0.944354 0.943709 0.943064 0.942418 0.941774 0.941132 0.940495 0.939862 0.939236 0.938617 0.938007 0.937405 0.936812 0.936228 0.935654 0.935088 0.934532 0.933986 0.933449 0.932923 0.932923 
1.01195 1.01228 1.01225 1.01221 1.01216 1.0121 1.01204 1.01197 1.01189 1.01182 1.01174 1.01167 1.0116 1.01153 1.01147 1.01141 1.01135 1.01129 1.01123 1.01116 1.01109 1.01101 1.01093 1.01083 1.01071 1.01058 1.01043 1.01025 1.01005 1.00981 1.00955 1.00925 1.00891 1.00854 1.00813 1.00769 1.0072 1.00669 1.00613 1.00555 1.00494 1.0043 1.00363 1.00295 1.00223 1.0015 1.00075 0.999977 0.999186 0.998376 0.997546 0.996698 0.995831 0.994944 0.994038 0.993111 0.992164 0.991196 0.990206 0.989197 0.988166 0.987116 0.986048 0.984964 0.983867 0.982761 0.98165 0.980538 0.97943 0.97833 0.977243 0.976173 0.975123 0.974096 0.973093 0.972115 0.97116 0.970228 0.969314 0.968415 0.967525 0.96664 0.965753 0.964858 0.96395 0.963025 0.962081 0.961117 0.960135 0.95914 0.958137 0.957136 0.956145 0.955174 0.954231 0.953323 0.952456 0.951632 0.950849 0.950105 0.949396 0.948715 0.948055 0.947411 0.946776 0.946147 0.945519 0.94489 0.94426 0.943628 0.942996 0.942363 0.941732 0.941104 0.94048 0.939862 0.939251 0.938648 0.938054 0.937468 0.936892 0.936325 0.935767 0.935218 0.934679 0.93415 0.933631 0.933631 
1.0122 1.01253 1.01251 1.01247 1.01243 1.01237 1.01231 1.01225 1.01218 1.01211 1.01204 1.01197 1.0119 1.01183 1.01176 1.01169 1.01162 1.01154 1.01147 1.01138 1.01129 1.01119 1.01109 1.01097 1.01083 1.01069 1.01052 1.01033 1.01012 1.00988 1.0096 1.0093 1.00896 1.00858 1.00817 1.00772 1.00723 1.00671 1.00615 1.00557 1.00495 1.00431 1.00364 1.00295 1.00223 1.00149 1.00073 0.999957 0.999158 0.99834 0.997503 0.996645 0.995768 0.99487 0.99395 0.99301 0.992048 0.991064 0.99006 0.989035 0.987988 0.986925 0.985845 0.98475 0.983646 0.982535 0.981422 0.980312 0.979209 0.978118 0.977043 0.975988 0.974955 0.973948 0.972967 0.972012 0.971083 0.970176 0.969288 0.968415 0.967552 0.966693 0.965833 0.964964 0.964082 0.963183 0.962263 0.961323 0.960364 0.95939 0.958407 0.957425 0.956451 0.955497 0.95457 0.953678 0.952827 0.952018 0.951252 0.950525 0.949833 0.949169 0.948527 0.947901 0.947284 0.946672 0.946061 0.945449 0.944835 0.944217 0.943598 0.942978 0.942357 0.941739 0.941125 0.940516 0.939913 0.939318 0.938732 0.938154 0.937585 0.937025 0.936475 0.935934 0.935402 0.93488 0.934368 0.934368 
1.01244 1.01278 1.01276 1.01273 1.01269 1.01264 1.01259 1.01254 1.01248 1.01241 1.01235 1.01228 1.01221 1.01214 1.01206 1.01198 1.0119 1.01181 1.01171 1.01161 1.0115 1.01139 1.01126 1.01112 1.01097 1.01081 1.01063 1.01043 1.01021 1.00996 1.00968 1.00937 1.00902 1.00864 1.00822 1.00777 1.00728 1.00676 1.0062 1.00561 1.00499 1.00435 1.00367 1.00298 1.00226 1.00151 1.00075 0.999964 0.999157 0.998331 0.997483 0.996614 0.995724 0.994811 0.993876 0.992919 0.991938 0.990936 0.989914 0.988869 0.987806 0.986727 0.985631 0.984526 0.983413 0.982297 0.981182 0.980073 0.978977 0.977894 0.976831 0.975792 0.974778 0.973791 0.972833 0.971903 0.970998 0.970117 0.969256 0.96841 0.967575 0.966743 0.96591 0.965068 0.964213 0.96334 0.962446 0.961531 0.960596 0.959645 0.958684 0.957722 0.956768 0.955832 0.954922 0.954048 0.953213 0.952421 0.951672 0.950962 0.950287 0.949642 0.949018 0.94841 0.947811 0.947217 0.946624 0.946029 0.94543 0.944828 0.944223 0.943615 0.943007 0.9424 0.941796 0.941196 0.940602 0.940015 0.939437 0.938867 0.938306 0.937754 0.937211 0.936678 0.936154 0.935639 0.935135 0.935135 
1.01268 1.01303 1.01301 1.01298 1.01295 1.01291 1.01287 1.01282 1.01277 1.01272 1.01266 1.01259 1.01253 1.01245 1.01237 1.01228 1.01219 1.01208 1.01197 1.01185 1.01172 1.01159 1.01144 1.01129 1.01113 1.01095 1.01076 1.01055 1.01031 1.01006 1.00977 1.00946 1.00911 1.00873 1.00831 1.00785 1.00736 1.00683 1.00627 1.00568 1.00506 1.00441 1.00374 1.00304 1.00231 1.00156 1.00079 1 0.999185 0.998349 0.997488 0.996607 0.9957 0.99477 0.993817 0.992837 0.991836 0.990813 0.989767 0.9887 0.98762 0.98652 0.985409 0.984291 0.983167 0.982044 0.980928 0.97982 0.978728 0.977657 0.976605 0.975581 0.974587 0.973621 0.972684 0.971779 0.9709 0.970046 0.969213 0.968394 0.967587 0.966784 0.965978 0.965165 0.964337 0.963492 0.962625 0.961736 0.960826 0.9599 0.958962 0.958023 0.95709 0.956174 0.955284 0.954428 0.953611 0.952837 0.952105 0.951413 0.950757 0.950129 0.949524 0.948934 0.948354 0.947778 0.947203 0.946625 0.946043 0.945457 0.944866 0.944272 0.943677 0.943082 0.942488 0.941899 0.941314 0.940737 0.940167 0.939605 0.939053 0.938509 0.937975 0.937449 0.936933 0.936426 0.935929 0.935929 
1.01292 1.01329 1.01326 1.01324 1.01321 1.01318 1.01315 1.01311 1.01306 1.01302 1.01297 1.01291 1.01284 1.01277 1.01268 1.01259 1.01248 1.01237 1.01224 1.0121 1.01196 1.01181 1.01164 1.01147 1.01129 1.01111 1.0109 1.01068 1.01044 1.01018 1.00989 1.00957 1.00922 1.00883 1.00841 1.00796 1.00746 1.00694 1.00638 1.00579 1.00516 1.00451 1.00383 1.00313 1.0024 1.00165 1.00087 1.00007 0.999244 0.998395 0.997522 0.996624 0.995698 0.99475 0.993772 0.992769 0.991745 0.990694 0.989621 0.988536 0.987431 0.986306 0.985182 0.984047 0.98291 0.981778 0.980658 0.979556 0.978463 0.9774 0.976365 0.975353 0.974375 0.973432 0.972517 0.971636 0.970785 0.969956 0.969151 0.968361 0.967582 0.966808 0.966031 0.965247 0.964449 0.963632 0.962794 0.961933 0.96105 0.960149 0.959237 0.958322 0.957412 0.956518 0.955649 0.954813 0.954016 0.953261 0.952548 0.951875 0.951237 0.950628 0.950042 0.949471 0.948909 0.948352 0.947795 0.947235 0.94667 0.9461 0.945525 0.944945 0.944363 0.94378 0.943199 0.94262 0.942046 0.941479 0.940918 0.940366 0.939823 0.939288 0.938762 0.938246 0.937738 0.937239 0.93675 0.93675 
1.01316 1.01353 1.01352 1.0135 1.01347 1.01345 1.01342 1.01339 1.01336 1.01332 1.01327 1.01322 1.01316 1.01309 1.013 1.0129 1.01278 1.01266 1.01252 1.01237 1.0122 1.01204 1.01186 1.01167 1.01148 1.01128 1.01107 1.01084 1.01059 1.01032 1.01003 1.00971 1.00935 1.00897 1.00855 1.00809 1.0076 1.00707 1.00651 1.00592 1.00529 1.00464 1.00396 1.00325 1.00252 1.00176 1.00098 1.00017 0.999336 0.998473 0.997586 0.996667 0.995723 0.994752 0.993745 0.99272 0.991664 0.990581 0.989485 0.988375 0.987233 0.986098 0.984954 0.983789 0.982644 0.981507 0.980372 0.979271 0.978191 0.977125 0.976103 0.975108 0.974141 0.973217 0.97233 0.971467 0.970644 0.969844 0.969064 0.968306 0.967554 0.96681 0.966064 0.965309 0.964541 0.963754 0.962945 0.962114 0.96126 0.960387 0.959503 0.958613 0.957729 0.956859 0.956013 0.955199 0.954423 0.953689 0.952996 0.952342 0.951723 0.951134 0.950567 0.950015 0.949473 0.948935 0.948396 0.947854 0.947307 0.946753 0.946194 0.945629 0.945061 0.944492 0.943923 0.943356 0.942793 0.942237 0.941687 0.941145 0.940611 0.940086 0.93957 0.939063 0.938564 0.938074 0.937593 0.937593 