# vtk DataFile Version 3.0
LBM simulation at step 150
ASCII
DATASET STRUCTURED_POINTS
DIMENSIONS 128 128 1
ORIGIN 0 0 0
SPACING 1 1 1
POINT_DATA 16384
SCALARS density float
LOOKUP_TABLE default
0.954104 1.01953 1.02129 1.018 1.01827 1.01852 1.01844 1.01843 1.01849 1.01858 1.01869 1.01884 1.01901 1.01922 1.01945 1.01972 1.02 1.02031 1.02064 1.02099 1.02135 1.02171 1.02207 1.02243 1.02279 1.02313 1.02345 1.02376 1.02405 1.02432 1.02456 1.02477 1.02496 1.02512 1.02524 1.02533 1.02538 1.02538 1.02534 1.02523 1.02507 1.02484 1.02453 1.02415 1.02371 1.02319 1.02262 1.02199 1.02132 1.02061 1.01988 1.01914 1.01838 1.01761 1.01684 1.01607 1.0153 1.01453 1.01377 1.01302 1.01227 1.01153 1.01081 1.0101 1.00941 1.00874 1.00809 1.00746 1.00685 1.00626 1.00568 1.00512 1.00457 1.00401 1.00344 1.00284 1.00219 1.00148 1.00068 0.999757 0.998701 0.997493 0.996133 0.994635 0.993032 0.991375 0.989723 0.988137 0.98667 0.985358 0.98422 0.983257 0.982454 0.981789 0.981234 0.980764 0.980354 0.979985 0.979643 0.979315 0.978997 0.978681 0.978366 0.97805 0.97773 0.977407 0.977079 0.976747 0.976408 0.976064 0.975712 0.975353 0.974985 0.974607 0.974217 0.973814 0.973396 0.97296 0.972501 0.972019 0.97149 0.970894 0.970274 0.969953 0.968125 0.96684 0.984273 0.984273 
1.02212 1.02017 1.01637 1.01767 1.01856 1.01854 1.01847 1.01848 1.01854 1.01863 1.01876 1.01891 1.01909 1.0193 1.01954 1.0198 1.02009 1.0204 1.02073 1.02107 1.02142 1.02178 1.02213 1.02248 1.02283 1.02316 1.02347 1.02377 1.02405 1.0243 1.02453 1.02474 1.02491 1.02506 1.02518 1.02526 1.0253 1.0253 1.02524 1.02513 1.02496 1.02472 1.02441 1.02403 1.02358 1.02306 1.02249 1.02187 1.02121 1.02051 1.01979 1.01905 1.0183 1.01755 1.01679 1.01603 1.01527 1.01451 1.01376 1.01301 1.01228 1.01155 1.01083 1.01012 1.00944 1.00876 1.00811 1.00748 1.00686 1.00627 1.00568 1.00511 1.00455 1.00398 1.0034 1.00278 1.00213 1.00141 1.0006 0.999693 0.998654 0.997475 0.996151 0.994694 0.993131 0.991509 0.98988 0.988304 0.986833 0.985506 0.984346 0.983356 0.982527 0.981838 0.981264 0.980778 0.980356 0.979978 0.979629 0.979298 0.978976 0.978658 0.978341 0.978022 0.977701 0.977376 0.977046 0.976711 0.97637 0.976022 0.975667 0.975304 0.974931 0.974547 0.974151 0.97374 0.973312 0.972864 0.972392 0.971895 0.971361 0.97073 0.969915 0.969311 0.970005 0.971145 0.969266 0.969266 
1.02957 1.01708 1.01648 1.01903 1.0187 1.01835 1.01846 1.01859 1.01866 1.01876 1.01889 1.01906 1.01926 1.01949 1.01974 1.02001 1.02031 1.02062 1.02094 1.02128 1.02162 1.02196 1.02229 1.02262 1.02294 1.02325 1.02354 1.02381 1.02406 1.02429 1.0245 1.02468 1.02484 1.02497 1.02507 1.02513 1.02516 1.02514 1.02507 1.02495 1.02477 1.02452 1.02421 1.02382 1.02337 1.02286 1.02229 1.02168 1.02102 1.02034 1.01964 1.01892 1.01819 1.01745 1.01671 1.01597 1.01523 1.0145 1.01377 1.01304 1.01232 1.0116 1.0109 1.0102 1.00952 1.00885 1.00819 1.00756 1.00693 1.00632 1.00573 1.00514 1.00456 1.00398 1.00338 1.00275 1.00209 1.00137 1.00057 0.99967 0.998653 0.997501 0.99621 0.994785 0.993252 0.99165 0.990032 0.988456 0.986975 0.985631 0.984449 0.983436 0.982585 0.981877 0.981286 0.980788 0.980357 0.979972 0.979619 0.979284 0.97896 0.97864 0.978321 0.978001 0.977678 0.977351 0.97702 0.976683 0.97634 0.97599 0.975632 0.975265 0.974889 0.974501 0.9741 0.973683 0.973249 0.972795 0.972314 0.971788 0.971223 0.970677 0.970134 0.969348 0.968863 0.967053 0.960544 0.960544 
1.01444 1.01877 1.02082 1.01854 1.01796 1.01855 1.01873 1.01871 1.01879 1.01895 1.01912 1.01931 1.01953 1.01978 1.02005 1.02034 1.02064 1.02095 1.02127 1.02159 1.02191 1.02223 1.02254 1.02283 1.02312 1.02339 1.02364 1.02387 1.02408 1.02428 1.02445 1.0246 1.02473 1.02483 1.02491 1.02495 1.02496 1.02492 1.02484 1.02471 1.02452 1.02426 1.02394 1.02355 1.0231 1.02259 1.02203 1.02143 1.02079 1.02012 1.01944 1.01874 1.01803 1.01732 1.01661 1.0159 1.01519 1.01448 1.01378 1.01308 1.01238 1.01169 1.011 1.01032 1.00965 1.00898 1.00833 1.00769 1.00706 1.00644 1.00583 1.00522 1.00462 1.00401 1.0034 1.00276 1.00208 1.00136 1.00056 0.999669 0.998668 0.997538 0.996273 0.994875 0.993365 0.99178 0.990171 0.988595 0.987105 0.985745 0.984544 0.983511 0.98264 0.981914 0.981309 0.980799 0.98036 0.979969 0.979612 0.979274 0.978948 0.978627 0.978307 0.977986 0.977662 0.977334 0.977001 0.976663 0.976318 0.975967 0.975607 0.975239 0.97486 0.974469 0.974066 0.973646 0.973208 0.972747 0.972264 0.971756 0.971194 0.970554 0.969977 0.969399 0.968418 0.966448 0.962341 0.962341 
1.01875 1.01939 1.01854 1.01816 1.01881 1.01883 1.01872 1.01886 1.01905 1.01922 1.01942 1.01965 1.0199 1.02017 1.02046 1.02076 1.02106 1.02137 1.02168 1.02198 1.02227 1.02256 1.02283 1.02308 1.02332 1.02355 1.02375 1.02394 1.02411 1.02426 1.02439 1.0245 1.0246 1.02467 1.02471 1.02473 1.02472 1.02466 1.02457 1.02442 1.02421 1.02395 1.02362 1.02323 1.02278 1.02228 1.02173 1.02113 1.02051 1.01986 1.0192 1.01853 1.01785 1.01717 1.01649 1.01581 1.01513 1.01446 1.01379 1.01312 1.01245 1.01178 1.01112 1.01046 1.0098 1.00915 1.0085 1.00786 1.00722 1.00659 1.00596 1.00534 1.00472 1.00409 1.00345 1.00279 1.0021 1.00136 1.00056 0.999675 0.998685 0.997574 0.99633 0.994956 0.993468 0.991901 0.990301 0.988725 0.987227 0.985854 0.984634 0.983582 0.982693 0.98195 0.981332 0.980812 0.980365 0.979969 0.979608 0.979268 0.97894 0.978618 0.978298 0.977976 0.977651 0.977323 0.976989 0.97665 0.976305 0.975953 0.975592 0.975223 0.974844 0.974452 0.974048 0.973628 0.973191 0.972732 0.972243 0.971727 0.971194 0.970613 0.969961 0.969177 0.967837 0.966685 0.965776 0.965776 
1.01979 1.01865 1.01828 1.01899 1.01896 1.01875 1.01895 1.01918 1.01935 1.01954 1.01979 1.02006 1.02034 1.02064 1.02094 1.02124 1.02155 1.02185 1.02213 1.02241 1.02267 1.02291 1.02314 1.02334 1.02353 1.02371 1.02386 1.024 1.02412 1.02423 1.02432 1.02439 1.02445 1.02449 1.0245 1.02449 1.02445 1.02438 1.02427 1.02411 1.02389 1.02362 1.02329 1.0229 1.02245 1.02195 1.0214 1.02082 1.02021 1.01959 1.01895 1.0183 1.01765 1.017 1.01635 1.01571 1.01506 1.01442 1.01379 1.01315 1.01252 1.01188 1.01124 1.01061 1.00997 1.00933 1.00869 1.00805 1.00741 1.00676 1.00612 1.00548 1.00484 1.00419 1.00352 1.00284 1.00213 1.00138 1.00057 0.999687 0.998705 0.997608 0.996385 0.995033 0.993565 0.992013 0.990422 0.988846 0.987341 0.985954 0.984718 0.983647 0.982741 0.981984 0.981353 0.980824 0.98037 0.97997 0.979607 0.979265 0.978936 0.978614 0.978293 0.977971 0.977647 0.977318 0.976985 0.976645 0.9763 0.975948 0.975587 0.975218 0.974839 0.974449 0.974046 0.973627 0.973191 0.972737 0.97226 0.97175 0.971208 0.970638 0.969985 0.969264 0.968294 0.967344 0.966852 0.966852 
1.01848 1.01871 1.01898 1.01895 1.01884 1.01909 1.01932 1.01946 1.01968 1.01996 1.02024 1.02053 1.02084 1.02115 1.02146 1.02177 1.02206 1.02234 1.02259 1.02283 1.02305 1.02325 1.02343 1.02359 1.02372 1.02385 1.02395 1.02404 1.02412 1.02418 1.02423 1.02427 1.02429 1.0243 1.02428 1.02425 1.02419 1.0241 1.02397 1.02379 1.02357 1.02329 1.02295 1.02256 1.02211 1.02162 1.02108 1.02051 1.01991 1.0193 1.01868 1.01806 1.01744 1.01681 1.0162 1.01558 1.01498 1.01437 1.01377 1.01317 1.01256 1.01196 1.01135 1.01074 1.01012 1.0095 1.00887 1.00823 1.00759 1.00694 1.00629 1.00563 1.00497 1.00429 1.00361 1.0029 1.00217 1.00141 1.00059 0.999699 0.998723 0.99764 0.996434 0.995101 0.993653 0.992115 0.990531 0.988955 0.987443 0.986043 0.984791 0.983704 0.982782 0.982012 0.981371 0.980833 0.980374 0.979971 0.979606 0.979264 0.978935 0.978613 0.978292 0.977971 0.977647 0.977319 0.976986 0.976647 0.976302 0.975951 0.975591 0.975223 0.974846 0.974457 0.974056 0.973642 0.973211 0.972761 0.972291 0.971799 0.971275 0.970716 0.970074 0.969379 0.968733 0.967984 0.967313 0.967313 
1.01888 1.01888 1.019 1.01899 1.0192 1.01944 1.01959 1.01983 1.02013 1.02043 1.02073 1.02105 1.02138 1.0217 1.022 1.02229 1.02256 1.02281 1.02303 1.02323 1.0234 1.02355 1.02368 1.02379 1.02388 1.02396 1.02402 1.02406 1.0241 1.02412 1.02414 1.02414 1.02413 1.02411 1.02407 1.02402 1.02394 1.02383 1.02369 1.0235 1.02326 1.02298 1.02263 1.02224 1.02179 1.0213 1.02077 1.02021 1.01962 1.01903 1.01842 1.01782 1.01722 1.01662 1.01603 1.01545 1.01487 1.01429 1.01372 1.01315 1.01258 1.012 1.01142 1.01084 1.01024 1.00964 1.00902 1.00839 1.00776 1.00711 1.00645 1.00578 1.00509 1.0044 1.00369 1.00296 1.00221 1.00143 1.0006 0.999709 0.998737 0.997664 0.996474 0.995159 0.993727 0.992201 0.990624 0.989048 0.987529 0.986117 0.984851 0.983749 0.982813 0.982031 0.981381 0.980838 0.980375 0.97997 0.979604 0.979262 0.978935 0.978613 0.978294 0.977974 0.977651 0.977324 0.976992 0.976655 0.976311 0.975961 0.975603 0.975237 0.974861 0.974476 0.974079 0.973669 0.973245 0.972804 0.972344 0.971863 0.971354 0.970818 0.970251 0.969627 0.969031 0.968425 0.967785 0.967785 
1.01929 1.01904 1.01913 1.01932 1.01955 1.01973 1.01998 1.0203 1.02061 1.02092 1.02126 1.0216 1.02193 1.02224 1.02253 1.02279 1.02303 1.02324 1.02342 1.02357 1.0237 1.0238 1.02388 1.02395 1.02399 1.02403 1.02405 1.02406 1.02406 1.02405 1.02404 1.02401 1.02398 1.02393 1.02388 1.0238 1.02371 1.02358 1.02343 1.02323 1.02298 1.02269 1.02234 1.02194 1.0215 1.02101 1.02048 1.01992 1.01935 1.01877 1.01818 1.01759 1.01701 1.01643 1.01586 1.0153 1.01474 1.01419 1.01365 1.0131 1.01255 1.012 1.01145 1.01089 1.01031 1.00973 1.00913 1.00851 1.00788 1.00723 1.00657 1.00589 1.0052 1.00449 1.00376 1.00301 1.00224 1.00144 1.0006 0.999709 0.99874 0.997676 0.996499 0.9952 0.993783 0.992268 0.990696 0.989119 0.987594 0.986172 0.984893 0.983777 0.982829 0.982038 0.981381 0.980833 0.980369 0.979964 0.979599 0.979259 0.978934 0.978615 0.978298 0.97798 0.977659 0.977333 0.977003 0.976667 0.976325 0.975977 0.975621 0.975257 0.974885 0.974503 0.974111 0.973706 0.973289 0.972857 0.972409 0.971943 0.971455 0.970939 0.970415 0.969869 0.969297 0.968761 0.968234 0.968234 
1.01951 1.01933 1.01949 1.01968 1.01989 1.02015 1.02047 1.02078 1.02112 1.02147 1.02181 1.02214 1.02246 1.02275 1.02301 1.02324 1.02344 1.0236 1.02374 1.02384 1.02392 1.02399 1.02403 1.02405 1.02406 1.02406 1.02405 1.02403 1.02401 1.02397 1.02393 1.02389 1.02383 1.02377 1.0237 1.02361 1.0235 1.02336 1.02319 1.02299 1.02274 1.02244 1.02208 1.02168 1.02123 1.02074 1.02022 1.01967 1.0191 1.01853 1.01795 1.01737 1.0168 1.01624 1.01569 1.01514 1.0146 1.01407 1.01354 1.01302 1.01249 1.01196 1.01142 1.01088 1.01033 1.00976 1.00917 1.00857 1.00795 1.00731 1.00665 1.00597 1.00526 1.00454 1.0038 1.00304 1.00225 1.00144 1.00059 0.999693 0.998726 0.99767 0.996505 0.99522 0.993815 0.992311 0.990744 0.989166 0.987634 0.986202 0.984912 0.983785 0.982827 0.982028 0.981367 0.980818 0.980353 0.97995 0.979588 0.979252 0.97893 0.978614 0.978301 0.977986 0.977668 0.977345 0.977018 0.976684 0.976344 0.975998 0.975645 0.975284 0.974915 0.974537 0.97415 0.973752 0.973342 0.972919 0.972483 0.97203 0.971564 0.971079 0.970578 0.970075 0.969555 0.969049 0.968574 0.968574 
1.01995 1.01972 1.01989 1.02009 1.02035 1.02065 1.02097 1.02131 1.02167 1.02202 1.02235 1.02267 1.02296 1.02321 1.02343 1.02362 1.02377 1.02389 1.02398 1.02405 1.02409 1.02411 1.02412 1.02411 1.02409 1.02407 1.02403 1.02399 1.02394 1.02389 1.02383 1.02377 1.0237 1.02362 1.02353 1.02343 1.02331 1.02316 1.02299 1.02277 1.02252 1.02221 1.02186 1.02145 1.021 1.02051 1.01999 1.01944 1.01888 1.01831 1.01774 1.01717 1.01661 1.01606 1.01551 1.01498 1.01445 1.01393 1.01341 1.0129 1.01239 1.01187 1.01135 1.01082 1.01028 1.00973 1.00916 1.00857 1.00796 1.00732 1.00667 1.00599 1.00528 1.00455 1.0038 1.00303 1.00223 1.00141 1.00055 0.999654 0.998689 0.99764 0.996487 0.995214 0.993821 0.992325 0.990762 0.989182 0.987645 0.986204 0.984904 0.983767 0.982802 0.981998 0.981335 0.980786 0.980324 0.979925 0.979568 0.979237 0.978921 0.978611 0.978302 0.977992 0.977678 0.977359 0.977034 0.976704 0.976367 0.976024 0.975674 0.975316 0.974951 0.974578 0.974195 0.973803 0.973401 0.972988 0.972563 0.972125 0.971674 0.971214 0.970739 0.97026 0.969782 0.969304 0.968847 0.968847 
1.02052 1.02019 1.02037 1.02061 1.02088 1.02119 1.02152 1.02187 1.02222 1.02255 1.02286 1.02315 1.0234 1.02361 1.02379 1.02393 1.02403 1.02411 1.02416 1.02418 1.02419 1.02418 1.02416 1.02413 1.02409 1.02405 1.02399 1.02393 1.02387 1.0238 1.02373 1.02365 1.02357 1.02348 1.02338 1.02327 1.02314 1.02299 1.02281 1.02259 1.02232 1.02202 1.02166 1.02125 1.0208 1.02031 1.01979 1.01925 1.01869 1.01812 1.01755 1.01699 1.01643 1.01588 1.01534 1.01481 1.01429 1.01377 1.01326 1.01276 1.01225 1.01174 1.01123 1.01071 1.01018 1.00963 1.00907 1.0085 1.0079 1.00727 1.00662 1.00594 1.00524 1.00451 1.00375 1.00298 1.00217 1.00134 1.00049 0.999585 0.998624 0.997582 0.996439 0.995177 0.993795 0.992306 0.990746 0.989165 0.987623 0.986174 0.984865 0.983721 0.98275 0.981944 0.981281 0.980735 0.980278 0.979886 0.979536 0.979212 0.978903 0.978601 0.978299 0.977995 0.977686 0.977372 0.977052 0.976726 0.976393 0.976053 0.975707 0.975353 0.974992 0.974623 0.974246 0.97386 0.973466 0.973061 0.972647 0.972222 0.971787 0.971343 0.970893 0.970435 0.969979 0.969526 0.969084 0.969084 
1.02115 1.02077 1.02096 1.0212 1.02148 1.02178 1.02211 1.02244 1.02276 1.02306 1.02334 1.02357 1.02378 1.02394 1.02407 1.02416 1.02422 1.02425 1.02427 1.02426 1.02424 1.02421 1.02417 1.02412 1.02407 1.02401 1.02394 1.02387 1.02379 1.02371 1.02363 1.02354 1.02345 1.02335 1.02325 1.02313 1.02299 1.02283 1.02264 1.02242 1.02216 1.02185 1.02149 1.02108 1.02063 1.02015 1.01963 1.01908 1.01852 1.01796 1.01739 1.01683 1.01627 1.01572 1.01518 1.01465 1.01413 1.01361 1.0131 1.01259 1.01208 1.01157 1.01106 1.01054 1.01002 1.00948 1.00893 1.00836 1.00776 1.00715 1.0065 1.00583 1.00513 1.00441 1.00365 1.00287 1.00207 1.00124 1.00038 0.999481 0.998525 0.997493 0.996359 0.995109 0.993736 0.992254 0.990696 0.989113 0.987565 0.986109 0.984793 0.983643 0.982669 0.981862 0.981201 0.980661 0.980211 0.979827 0.979487 0.979174 0.978875 0.978581 0.978288 0.977992 0.977691 0.977384 0.977069 0.976748 0.97642 0.976085 0.975743 0.975394 0.975037 0.974673 0.974301 0.973922 0.973534 0.973138 0.972733 0.97232 0.971899 0.97147 0.971036 0.970598 0.970159 0.969724 0.969296 0.969296 
1.02189 1.02144 1.02163 1.02186 1.02213 1.02242 1.02271 1.023 1.02328 1.02353 1.02375 1.02394 1.02408 1.0242 1.02427 1.02432 1.02434 1.02434 1.02433 1.0243 1.02426 1.02421 1.02416 1.02409 1.02403 1.02395 1.02388 1.02379 1.02371 1.02362 1.02353 1.02343 1.02334 1.02323 1.02312 1.02299 1.02285 1.02269 1.0225 1.02227 1.02201 1.0217 1.02134 1.02094 1.02049 1.02001 1.01949 1.01895 1.01839 1.01783 1.01726 1.01669 1.01613 1.01558 1.01503 1.01449 1.01396 1.01344 1.01292 1.01241 1.01189 1.01138 1.01086 1.01034 1.00981 1.00927 1.00872 1.00815 1.00757 1.00696 1.00632 1.00566 1.00496 1.00424 1.00349 1.00272 1.00191 1.00109 1.00023 0.99934 0.998392 0.997369 0.996247 0.995007 0.993643 0.992166 0.99061 0.989025 0.987471 0.986009 0.984686 0.983532 0.982556 0.98175 0.981094 0.980561 0.980121 0.979748 0.97942 0.979119 0.978832 0.97855 0.978268 0.977982 0.97769 0.977391 0.977085 0.97677 0.976448 0.976118 0.975781 0.975437 0.975085 0.974726 0.97436 0.973986 0.973605 0.973217 0.972821 0.972418 0.972009 0.971593 0.971172 0.970749 0.970325 0.969903 0.969487 0.969487 
1.02271 1.0222 1.02238 1.02259 1.02282 1.02307 1.02331 1.02355 1.02376 1.02395 1.02411 1.02423 1.02432 1.02438 1.02442 1.02443 1.02441 1.02439 1.02435 1.02431 1.02425 1.02419 1.02412 1.02405 1.02397 1.02389 1.0238 1.02372 1.02362 1.02353 1.02343 1.02333 1.02322 1.02312 1.023 1.02287 1.02273 1.02256 1.02237 1.02215 1.02188 1.02158 1.02123 1.02083 1.02039 1.0199 1.01939 1.01885 1.01829 1.01772 1.01715 1.01658 1.01601 1.01545 1.0149 1.01435 1.01381 1.01327 1.01274 1.01221 1.01169 1.01116 1.01064 1.0101 1.00957 1.00902 1.00847 1.0079 1.00731 1.0067 1.00607 1.00542 1.00473 1.00402 1.00327 1.00251 1.00171 1.00089 1.00004 0.999161 0.998224 0.997213 0.996102 0.994873 0.993517 0.992045 0.99049 0.988902 0.987343 0.985874 0.984545 0.983387 0.98241 0.981607 0.980958 0.980433 0.980005 0.979645 0.979331 0.979044 0.978772 0.978504 0.978236 0.977962 0.977682 0.977393 0.977096 0.97679 0.976475 0.976152 0.975821 0.975482 0.975136 0.974782 0.974421 0.974054 0.97368 0.973298 0.972911 0.972517 0.972117 0.971713 0.971304 0.970892 0.97048 0.970069 0.969663 0.969663 
1.0236 1.02303 1.02318 1.02336 1.02354 1.02372 1.0239 1.02407 1.02421 1.02432 1.02441 1.02447 1.02451 1.02452 1.02451 1.02449 1.02445 1.0244 1.02435 1.02429 1.02422 1.02415 1.02408 1.024 1.02391 1.02382 1.02373 1.02363 1.02353 1.02343 1.02333 1.02322 1.02312 1.023 1.02289 1.02276 1.02261 1.02245 1.02226 1.02204 1.02178 1.02148 1.02113 1.02074 1.02031 1.01983 1.01932 1.01878 1.01822 1.01765 1.01707 1.01649 1.01592 1.01534 1.01478 1.01422 1.01366 1.01311 1.01256 1.01202 1.01148 1.01093 1.01039 1.00984 1.00929 1.00874 1.00817 1.0076 1.00701 1.0064 1.00577 1.00512 1.00444 1.00374 1.003 1.00225 1.00146 1.00065 0.999818 0.998946 0.998022 0.997024 0.995927 0.994709 0.993361 0.991894 0.990338 0.988747 0.987182 0.985707 0.984373 0.983211 0.982235 0.981435 0.980792 0.980278 0.979862 0.979517 0.979218 0.978948 0.978692 0.978441 0.978188 0.977929 0.977663 0.977387 0.977101 0.976805 0.976499 0.976184 0.97586 0.975528 0.975188 0.97484 0.974485 0.974124 0.973756 0.973381 0.973001 0.972615 0.972224 0.971829 0.97143 0.971028 0.970626 0.970225 0.969827 0.969827 
1.02453 1.02391 1.02403 1.02415 1.02427 1.02438 1.02448 1.02455 1.02461 1.02465 1.02466 1.02466 1.02464 1.02461 1.02457 1.02451 1.02446 1.02439 1.02433 1.02426 1.02418 1.02411 1.02402 1.02394 1.02384 1.02375 1.02365 1.02354 1.02344 1.02334 1.02323 1.02312 1.02301 1.0229 1.02278 1.02265 1.02251 1.02235 1.02216 1.02195 1.02169 1.0214 1.02107 1.02069 1.02026 1.01979 1.01928 1.01874 1.01818 1.01761 1.01702 1.01643 1.01585 1.01526 1.01468 1.0141 1.01353 1.01296 1.01239 1.01183 1.01126 1.0107 1.01013 1.00957 1.009 1.00843 1.00785 1.00726 1.00667 1.00606 1.00543 1.00478 1.00411 1.00341 1.00269 1.00194 1.00117 1.00038 0.999554 0.998698 0.99779 0.996808 0.995724 0.994518 0.993179 0.991715 0.99016 0.988565 0.986994 0.985512 0.984172 0.983008 0.982031 0.981236 0.9806 0.980096 0.979694 0.979363 0.979082 0.978829 0.978591 0.978358 0.978123 0.977882 0.977631 0.97737 0.977098 0.976814 0.976519 0.976214 0.975899 0.975574 0.975241 0.9749 0.974551 0.974195 0.973833 0.973466 0.973092 0.972714 0.97233 0.971943 0.971553 0.97116 0.970766 0.970372 0.969981 0.969981 
1.02548 1.02482 1.0249 1.02496 1.025 1.02502 1.02503 1.02501 1.02498 1.02493 1.02488 1.02481 1.02474 1.02467 1.0246 1.02452 1.02445 1.02437 1.0243 1.02422 1.02414 1.02405 1.02396 1.02387 1.02377 1.02367 1.02356 1.02345 1.02335 1.02324 1.02313 1.02302 1.02291 1.0228 1.02268 1.02256 1.02242 1.02226 1.02208 1.02187 1.02163 1.02135 1.02103 1.02066 1.02024 1.01978 1.01927 1.01874 1.01817 1.01759 1.017 1.0164 1.0158 1.0152 1.0146 1.014 1.01341 1.01282 1.01223 1.01164 1.01105 1.01046 1.00987 1.00929 1.00869 1.0081 1.00751 1.00691 1.0063 1.00568 1.00505 1.0044 1.00373 1.00305 1.00233 1.0016 1.00084 1.00006 0.99926 0.998421 0.997531 0.996566 0.995498 0.994304 0.992974 0.991514 0.989959 0.98836 0.986783 0.985294 0.983949 0.982781 0.981805 0.981013 0.980385 0.979891 0.979501 0.979187 0.978922 0.978687 0.978469 0.978255 0.978039 0.977817 0.977585 0.977341 0.977084 0.976815 0.976533 0.97624 0.975934 0.975619 0.975294 0.97496 0.974618 0.974268 0.973913 0.973551 0.973184 0.972812 0.972435 0.972055 0.971672 0.971287 0.9709 0.970514 0.970129 0.970129 
1.02641 1.02574 1.02577 1.02577 1.02572 1.02565 1.02555 1.02544 1.02532 1.02519 1.02506 1.02494 1.02482 1.02471 1.02461 1.02452 1.02443 1.02434 1.02426 1.02417 1.02409 1.02399 1.0239 1.0238 1.02369 1.02358 1.02347 1.02336 1.02325 1.02314 1.02304 1.02293 1.02282 1.02271 1.0226 1.02247 1.02234 1.02219 1.02202 1.02182 1.02159 1.02132 1.02101 1.02065 1.02024 1.01979 1.01929 1.01875 1.01819 1.0176 1.017 1.01639 1.01577 1.01515 1.01454 1.01392 1.01331 1.01269 1.01208 1.01147 1.01085 1.01023 1.00962 1.009 1.00838 1.00777 1.00715 1.00653 1.00591 1.00528 1.00465 1.004 1.00333 1.00265 1.00195 1.00123 1.00049 0.999725 0.998939 0.99812 0.99725 0.996303 0.995252 0.994071 0.992749 0.991295 0.989739 0.988136 0.986554 0.985059 0.983708 0.982537 0.98156 0.980772 0.98015 0.979666 0.979289 0.978989 0.978741 0.978524 0.978325 0.978132 0.977937 0.977734 0.977522 0.977297 0.977059 0.976806 0.97654 0.976259 0.975966 0.975661 0.975345 0.975019 0.974685 0.974342 0.973993 0.973637 0.973276 0.97291 0.97254 0.972166 0.97179 0.971411 0.97103 0.97065 0.970271 0.970271 
1.02732 1.02664 1.02662 1.02655 1.02642 1.02625 1.02606 1.02585 1.02564 1.02543 1.02524 1.02506 1.02489 1.02475 1.02462 1.02451 1.0244 1.02431 1.02421 1.02412 1.02403 1.02393 1.02382 1.02372 1.0236 1.02349 1.02338 1.02327 1.02316 1.02305 1.02295 1.02284 1.02274 1.02263 1.02252 1.0224 1.02228 1.02214 1.02198 1.02179 1.02157 1.02132 1.02102 1.02067 1.02027 1.01982 1.01933 1.01879 1.01823 1.01763 1.01702 1.01639 1.01576 1.01513 1.0145 1.01386 1.01322 1.01259 1.01194 1.0113 1.01066 1.01001 1.00937 1.00872 1.00808 1.00744 1.0068 1.00616 1.00552 1.00488 1.00423 1.00358 1.00292 1.00224 1.00155 1.00083 1.00011 0.999364 0.998598 0.997799 0.996949 0.996021 0.994987 0.993821 0.992508 0.991059 0.989503 0.987898 0.98631 0.984809 0.983454 0.98228 0.981303 0.980517 0.979901 0.979426 0.97906 0.978773 0.978541 0.978343 0.978162 0.977989 0.977815 0.977634 0.977443 0.977239 0.97702 0.976786 0.976536 0.976272 0.975993 0.9757 0.975394 0.975078 0.974751 0.974416 0.974073 0.973724 0.973369 0.973009 0.972644 0.972276 0.971906 0.971532 0.971158 0.970782 0.970408 0.970408 
1.02816 1.02751 1.02744 1.0273 1.02709 1.02683 1.02655 1.02625 1.02595 1.02567 1.02541 1.02517 1.02496 1.02479 1.02463 1.0245 1.02438 1.02427 1.02417 1.02407 1.02396 1.02386 1.02375 1.02363 1.02352 1.0234 1.02329 1.02318 1.02307 1.02297 1.02287 1.02277 1.02267 1.02256 1.02246 1.02235 1.02223 1.0221 1.02195 1.02177 1.02157 1.02133 1.02104 1.02071 1.02032 1.01988 1.01939 1.01885 1.01828 1.01768 1.01706 1.01642 1.01577 1.01512 1.01447 1.01381 1.01315 1.01249 1.01182 1.01115 1.01048 1.0098 1.00913 1.00845 1.00778 1.00711 1.00644 1.00578 1.00513 1.00447 1.00382 1.00316 1.00249 1.00182 1.00113 1.00043 0.999715 0.998988 0.99824 0.997462 0.996632 0.995724 0.994707 0.993554 0.992252 0.990808 0.989255 0.987647 0.986056 0.984551 0.983191 0.982015 0.981038 0.980255 0.979644 0.979176 0.97882 0.978545 0.978327 0.978145 0.977983 0.977829 0.977675 0.977516 0.977347 0.977164 0.976967 0.976753 0.976523 0.976276 0.976012 0.975733 0.97544 0.975134 0.974817 0.97449 0.974154 0.973811 0.973462 0.973107 0.972749 0.972386 0.97202 0.971652 0.971283 0.970912 0.970542 0.970542 
1.02894 1.02832 1.02821 1.028 1.02772 1.02739 1.02702 1.02664 1.02626 1.02591 1.02558 1.02529 1.02504 1.02483 1.02465 1.02449 1.02436 1.02424 1.02412 1.02401 1.0239 1.02378 1.02366 1.02355 1.02343 1.02331 1.0232 1.02309 1.02299 1.02289 1.02279 1.0227 1.0226 1.02251 1.02241 1.02231 1.0222 1.02207 1.02193 1.02177 1.02158 1.02135 1.02108 1.02076 1.02038 1.01995 1.01946 1.01892 1.01835 1.01774 1.01711 1.01646 1.0158 1.01513 1.01446 1.01378 1.0131 1.01241 1.01171 1.01101 1.01031 1.0096 1.0089 1.00819 1.00749 1.00679 1.0061 1.00542 1.00475 1.00407 1.00341 1.00274 1.00207 1.00139 1.00071 1.00001 0.999312 0.9986 0.99787 0.99711 0.9963 0.995411 0.994411 0.993273 0.991981 0.990543 0.988993 0.987385 0.985792 0.984285 0.982923 0.981747 0.98077 0.979989 0.979383 0.978921 0.978573 0.978309 0.978103 0.977936 0.97779 0.977654 0.977521 0.977382 0.977235 0.977075 0.9769 0.976708 0.976498 0.97627 0.976024 0.975761 0.975482 0.975188 0.974881 0.974563 0.974235 0.973898 0.973555 0.973207 0.972853 0.972495 0.972134 0.971771 0.971406 0.97104 0.970674 0.970674 
1.02963 1.02906 1.02891 1.02865 1.02832 1.02791 1.02748 1.02702 1.02658 1.02616 1.02577 1.02543 1.02514 1.02489 1.02467 1.02449 1.02434 1.0242 1.02407 1.02395 1.02383 1.0237 1.02358 1.02346 1.02334 1.02322 1.02311 1.02301 1.02291 1.02282 1.02273 1.02264 1.02255 1.02247 1.02237 1.02228 1.02217 1.02206 1.02193 1.02178 1.0216 1.02139 1.02113 1.02082 1.02045 1.02002 1.01954 1.019 1.01842 1.01781 1.01717 1.01651 1.01584 1.01515 1.01446 1.01376 1.01306 1.01234 1.01162 1.01089 1.01016 1.00942 1.00868 1.00795 1.00722 1.00649 1.00578 1.00507 1.00438 1.00369 1.00301 1.00233 1.00165 1.00097 1.00028 0.999597 0.998905 0.998205 0.99749 0.996748 0.995955 0.995083 0.994099 0.992974 0.991693 0.990263 0.988717 0.987112 0.985519 0.984013 0.982652 0.981476 0.980502 0.979724 0.979122 0.978666 0.978325 0.97807 0.977874 0.977719 0.977587 0.977468 0.977353 0.977235 0.977109 0.976971 0.976818 0.976649 0.976461 0.976254 0.976027 0.975781 0.975518 0.975237 0.974942 0.974634 0.974315 0.973986 0.973649 0.973306 0.972957 0.972605 0.972248 0.971889 0.971528 0.971166 0.970804 0.970804 
1.03024 1.02973 1.02954 1.02925 1.02887 1.02842 1.02792 1.02741 1.02691 1.02643 1.02598 1.02559 1.02525 1.02496 1.02471 1.0245 1.02433 1.02417 1.02402 1.02389 1.02375 1.02362 1.0235 1.02337 1.02325 1.02314 1.02304 1.02294 1.02285 1.02276 1.02268 1.0226 1.02252 1.02243 1.02235 1.02226 1.02216 1.02206 1.02194 1.0218 1.02164 1.02143 1.02118 1.02088 1.02052 1.0201 1.01962 1.01909 1.01851 1.01789 1.01724 1.01657 1.01589 1.01519 1.01448 1.01376 1.01302 1.01228 1.01154 1.01078 1.01002 1.00925 1.00848 1.00772 1.00696 1.00621 1.00548 1.00475 1.00403 1.00332 1.00262 1.00193 1.00124 1.00055 0.999867 0.999182 0.998496 0.997806 0.997103 0.996375 0.995598 0.994741 0.993771 0.992658 0.991387 0.989965 0.988425 0.986825 0.985237 0.983734 0.982377 0.981206 0.980236 0.979463 0.978865 0.978415 0.97808 0.977831 0.977644 0.977499 0.97738 0.977275 0.977176 0.977076 0.976971 0.976854 0.976724 0.976578 0.976412 0.976227 0.976021 0.975794 0.975548 0.975282 0.975 0.974703 0.974393 0.974072 0.973742 0.973405 0.973062 0.972714 0.972362 0.972007 0.97165 0.971291 0.970932 0.970932 
1.03075 1.0303 1.0301 1.02978 1.02937 1.02889 1.02835 1.0278 1.02724 1.02671 1.02622 1.02577 1.02538 1.02505 1.02477 1.02453 1.02432 1.02414 1.02398 1.02383 1.02368 1.02355 1.02341 1.02329 1.02317 1.02307 1.02297 1.02288 1.02279 1.02272 1.02264 1.02257 1.02249 1.02241 1.02233 1.02225 1.02216 1.02207 1.02196 1.02183 1.02167 1.02148 1.02124 1.02095 1.0206 1.02019 1.01972 1.01919 1.0186 1.01798 1.01733 1.01665 1.01595 1.01523 1.0145 1.01376 1.01301 1.01224 1.01147 1.01068 1.00989 1.0091 1.0083 1.00752 1.00673 1.00596 1.00519 1.00444 1.0037 1.00298 1.00226 1.00155 1.00085 1.00015 0.999458 0.998772 0.998088 0.997403 0.99671 0.995992 0.995227 0.994382 0.993424 0.992322 0.991061 0.989647 0.988115 0.986522 0.984942 0.983448 0.982099 0.980935 0.979973 0.979207 0.978615 0.97817 0.97784 0.977598 0.977417 0.97728 0.977171 0.977078 0.976994 0.97691 0.976823 0.976727 0.976619 0.976495 0.976353 0.97619 0.976005 0.975799 0.975571 0.975322 0.975054 0.97477 0.97447 0.974158 0.973835 0.973504 0.973166 0.972823 0.972475 0.972124 0.971771 0.971416 0.97106 0.97106 
1.03117 1.0308 1.03058 1.03026 1.02983 1.02933 1.02877 1.02818 1.02759 1.02701 1.02647 1.02598 1.02554 1.02516 1.02484 1.02456 1.02432 1.02412 1.02394 1.02377 1.02362 1.02347 1.02334 1.02322 1.0231 1.023 1.02291 1.02283 1.02275 1.02268 1.02261 1.02254 1.02247 1.0224 1.02233 1.02225 1.02217 1.02208 1.02198 1.02186 1.02171 1.02153 1.02131 1.02103 1.02068 1.02028 1.01981 1.01929 1.01871 1.01808 1.01742 1.01673 1.01602 1.01529 1.01454 1.01378 1.013 1.01221 1.01141 1.0106 1.00979 1.00896 1.00815 1.00733 1.00652 1.00572 1.00494 1.00417 1.0034 1.00265 1.00192 1.00119 1.00047 0.999762 0.99906 0.998368 0.997684 0.997 0.996312 0.995601 0.994843 0.994007 0.993057 0.991963 0.99071 0.989305 0.987783 0.986201 0.984634 0.983152 0.981816 0.980665 0.979713 0.978956 0.978372 0.977933 0.977609 0.977372 0.977197 0.977066 0.976965 0.976882 0.976809 0.97674 0.97667 0.976593 0.976505 0.976403 0.976283 0.976143 0.975981 0.975795 0.975587 0.975356 0.975104 0.974833 0.974545 0.974242 0.973928 0.973603 0.973271 0.972932 0.972589 0.972241 0.971891 0.971539 0.971186 0.971186 
1.03152 1.03121 1.03099 1.03067 1.03025 1.02974 1.02917 1.02857 1.02794 1.02733 1.02675 1.0262 1.02572 1.02529 1.02492 1.02461 1.02434 1.02411 1.0239 1.02372 1.02355 1.0234 1.02327 1.02315 1.02304 1.02295 1.02286 1.02279 1.02272 1.02266 1.02259 1.02253 1.02247 1.0224 1.02233 1.02226 1.02218 1.0221 1.02201 1.02189 1.02176 1.02159 1.02137 1.0211 1.02077 1.02037 1.01991 1.01939 1.01882 1.01819 1.01753 1.01683 1.01611 1.01537 1.0146 1.01382 1.01302 1.0122 1.01137 1.01054 1.00969 1.00885 1.00801 1.00716 1.00633 1.00552 1.0047 1.00391 1.00313 1.00235 1.0016 1.00085 1.00011 0.999385 0.998674 0.997969 0.997281 0.996596 0.995907 0.9952 0.994445 0.993613 0.992667 0.991579 0.990332 0.988936 0.987426 0.985859 0.984308 0.982844 0.981526 0.980392 0.979456 0.978711 0.978137 0.977706 0.977388 0.977155 0.976985 0.97686 0.976764 0.976689 0.976626 0.976569 0.976513 0.976453 0.976384 0.976302 0.976204 0.976087 0.975947 0.975784 0.975596 0.975384 0.975149 0.974892 0.974616 0.974324 0.974018 0.973701 0.973374 0.97304 0.972701 0.972357 0.97201 0.971661 0.971311 0.971311 
1.03179 1.03155 1.03134 1.03102 1.03061 1.03012 1.02955 1.02894 1.0283 1.02766 1.02704 1.02645 1.02592 1.02545 1.02503 1.02468 1.02437 1.02411 1.02388 1.02368 1.0235 1.02334 1.02321 1.02309 1.02299 1.0229 1.02282 1.02276 1.0227 1.02264 1.02258 1.02253 1.02247 1.0224 1.02234 1.02227 1.0222 1.02212 1.02203 1.02193 1.0218 1.02164 1.02143 1.02117 1.02085 1.02047 1.02002 1.01951 1.01893 1.01831 1.01765 1.01695 1.01622 1.01546 1.01467 1.01387 1.01304 1.01221 1.01136 1.01049 1.00962 1.00877 1.00789 1.00702 1.00617 1.00533 1.0045 1.00367 1.00288 1.00208 1.00129 1.00052 0.999768 0.999018 0.998293 0.997579 0.996876 0.996191 0.995496 0.994787 0.994032 0.993198 0.992254 0.991167 0.989925 0.988539 0.987041 0.985492 0.983963 0.982523 0.981229 0.980117 0.9792 0.978472 0.977911 0.977489 0.977178 0.97695 0.976785 0.976663 0.976572 0.976503 0.976447 0.9764 0.976356 0.97631 0.976258 0.976196 0.976119 0.976023 0.975905 0.975764 0.975597 0.975405 0.975187 0.974946 0.974684 0.974403 0.974106 0.973796 0.973476 0.973147 0.972812 0.972471 0.972128 0.971781 0.971433 0.971433 