# vtk DataFile Version 3.0
LBM simulation at step 100
ASCII
DATASET STRUCTURED_POINTS
DIMENSIONS 256 256 1
ORIGIN 0 0 0
SPACING 1 1 1
POINT_DATA 65536
SCALARS density float
LOOKUP_TABLE default
0.739987 1.08582 1.13249 1.09038 1.08227 1.09116 1.09298 1.0912 1.09062 1.09076 1.09068 1.09046 1.09027 1.09013 1.08999 1.08985 1.08971 1.08959 1.08947 1.08936 1.08924 1.08914 1.08903 1.08893 1.08882 1.08872 1.08862 1.08852 1.08841 1.08831 1.0882 1.08809 1.08798 1.08786 1.08774 1.08762 1.08749 1.08735 1.0872 1.08705 1.08688 1.0867 1.0865 1.08628 1.08606 1.08583 1.0856 1.08536 1.08508 1.08466 1.08392 1.08257 1.08022 1.07645 1.0709 1.06343 1.05429 1.04413 1.03389 1.02452 1.0167 1.01073 1.00652 1.00375 1.00205 1.00107 1.00053 1.00025 1.00011 1.00005 1.00002 1.00001 1 1 1 1 1 1 1 1 1 1 1 1 1 1 1 1 1 1 1 1 1 1 1 1 1 1 1 1 1 1 1 1 1 1 1 1 1 1 1 1 1 1 1 1 1 1 1 1 1 1 1 1 1 1 1 1 1 1 1 1 1 1 1 1 1 1 1 1 1 1 1 1 1 1 1 1 1 1 1 1 1 1 1 1 1 1 1 1 1 1 1 1 1 1 1 1 1 1 1 1 1 1 1 1 1 1 1 1 1 1 1 1 0.999999 0.999999 0.999997 0.999992 0.999982 0.999962 0.999923 0.999852 0.99973 0.999528 0.999212 0.998742 0.998077 0.99718 0.996027 0.994608 0.992936 0.991042 0.988977 0.986801 0.98458 0.982374 0.980232 0.978191 0.976268 0.974468 0.972783 0.971198 0.969692 0.968247 0.966845 0.965473 0.964123 0.962786 0.961461 0.960143 0.958831 0.957523 0.956216 0.95491 0.953602 0.952289 0.950969 0.94964 0.948299 0.946945 0.945574 0.944183 0.94277 0.94133 0.939859 0.938354 0.936808 0.935216 0.93357 0.931861 0.930079 0.92821 0.926238 0.924141 0.921891 0.919459 0.916794 0.91378 0.910332 0.906558 0.902008 0.89459 0.885225 0.88078 0.858216 0.699435 
1.12887 1.06228 1.05738 1.0925 1.09599 1.09057 1.08974 1.0909 1.09102 1.09066 1.09046 1.09036 1.09022 1.09008 1.08992 1.0898 1.08966 1.08955 1.08942 1.08931 1.08919 1.08909 1.08898 1.08888 1.08877 1.08867 1.08856 1.08846 1.08835 1.08825 1.08813 1.08802 1.08791 1.08779 1.08766 1.08753 1.0874 1.08725 1.0871 1.08693 1.08675 1.08656 1.08635 1.08613 1.08589 1.08563 1.08536 1.08506 1.08467 1.08408 1.08314 1.08159 1.07913 1.07544 1.07023 1.06336 1.05496 1.04546 1.03562 1.02633 1.01833 1.01202 1.00745 1.00437 1.00243 1.00129 1.00065 1.00031 1.00014 1.00006 1.00003 1.00001 1 1 1 1 1 1 1 1 1 1 1 1 1 1 1 1 1 1 1 1 1 1 1 1 1 1 1 1 1 1 1 1 1 1 1 1 1 1 1 1 1 1 1 1 1 1 1 1 1 1 1 1 1 1 1 1 1 1 1 1 1 1 1 1 1 1 1 1 1 1 1 1 1 1 1 1 1 1 1 1 1 1 1 1 1 1 1 1 1 1 1 1 1 1 1 1 1 1 1 1 1 1 1 1 1 1 1 1 1 1 1 1 0.999999 0.999998 0.999996 0.99999 0.999978 0.999954 0.999909 0.999827 0.999689 0.999465 0.99912 0.998616 0.997915 0.996983 0.9958 0.994362 0.992684 0.990801 0.98876 0.98662 0.98444 0.982275 0.980171 0.97816 0.976258 0.974471 0.972791 0.971204 0.969693 0.968241 0.966833 0.965455 0.9641 0.96276 0.961431 0.96011 0.958796 0.957485 0.956176 0.954866 0.953555 0.952238 0.950914 0.949581 0.948236 0.946877 0.9455 0.944103 0.942683 0.941236 0.939757 0.938243 0.936686 0.935082 0.933421 0.931696 0.929894 0.928001 0.926001 0.923871 0.921581 0.919084 0.916335 0.913303 0.909813 0.90542 0.900293 0.895424 0.887241 0.86385 0.840415 0.840415 
1.13804 1.06637 1.0752 1.09477 1.09177 1.08927 1.09036 1.09099 1.09067 1.09044 1.09037 1.09028 1.09013 1.09 1.08985 1.08974 1.0896 1.08949 1.08936 1.08926 1.08913 1.08904 1.08892 1.08882 1.08871 1.08861 1.0885 1.0884 1.08828 1.08818 1.08806 1.08795 1.08782 1.0877 1.08757 1.08743 1.08729 1.08714 1.08697 1.0868 1.08661 1.08641 1.08618 1.08594 1.08567 1.08538 1.08506 1.08468 1.08419 1.08349 1.08242 1.08079 1.07835 1.07483 1.06998 1.06364 1.05581 1.0468 1.03722 1.02793 1.01973 1.01311 1.00822 1.00488 1.00274 1.00147 1.00075 1.00036 1.00017 1.00007 1.00003 1.00001 1 1 1 1 1 1 1 1 1 1 1 1 1 1 1 1 1 1 1 1 1 1 1 1 1 1 1 1 1 1 1 1 1 1 1 1 1 1 1 1 1 1 1 1 1 1 1 1 1 1 1 1 1 1 1 1 1 1 1 1 1 1 1 1 1 1 1 1 1 1 1 1 1 1 1 1 1 1 1 1 1 1 1 1 1 1 1 1 1 1 1 1 1 1 1 1 1 1 1 1 1 1 1 1 1 1 1 1 1 1 1 1 0.999999 0.999998 0.999995 0.999989 0.999975 0.999949 0.999899 0.99981 0.999661 0.999422 0.999057 0.998529 0.9978 0.99684 0.995633 0.994177 0.992492 0.990612 0.988586 0.98647 0.98432 0.982188 0.980116 0.978132 0.976253 0.97448 0.972809 0.971225 0.969714 0.968259 0.966846 0.965464 0.964104 0.962761 0.961429 0.960106 0.958789 0.957476 0.956165 0.954853 0.953538 0.952219 0.950893 0.949557 0.948209 0.946846 0.945467 0.944067 0.942643 0.941192 0.939709 0.93819 0.936628 0.935019 0.933353 0.931621 0.929814 0.927915 0.925908 0.923772 0.921481 0.918996 0.916242 0.913178 0.909835 0.90589 0.90058 0.894842 0.890814 0.881055 0.864369 0.864369 
1.05488 1.09068 1.1035 1.08593 1.08583 1.09121 1.09139 1.09024 1.09018 1.09039 1.0903 1.09014 1.09001 1.08991 1.08977 1.08967 1.08952 1.08943 1.08929 1.0892 1.08907 1.08898 1.08885 1.08876 1.08864 1.08855 1.08843 1.08833 1.08821 1.0881 1.08798 1.08786 1.08774 1.08761 1.08747 1.08733 1.08718 1.08702 1.08685 1.08666 1.08646 1.08624 1.086 1.08574 1.08545 1.08514 1.08477 1.08434 1.08377 1.08299 1.08185 1.08018 1.07776 1.07438 1.06982 1.0639 1.05655 1.04797 1.03866 1.02941 1.02105 1.01416 1.00898 1.00537 1.00305 1.00164 1.00084 1.00041 1.00019 1.00008 1.00003 1.00001 1.00001 1 1 1 1 1 1 1 1 1 1 1 1 1 1 1 1 1 1 1 1 1 1 1 1 1 1 1 1 1 1 1 1 1 1 1 1 1 1 1 1 1 1 1 1 1 1 1 1 1 1 1 1 1 1 1 1 1 1 1 1 1 1 1 1 1 1 1 1 1 1 1 1 1 1 1 1 1 1 1 1 1 1 1 1 1 1 1 1 1 1 1 1 1 1 1 1 1 1 1 1 1 1 1 1 1 1 1 1 1 1 1 0.999999 0.999998 0.999994 0.999987 0.999973 0.999944 0.999891 0.999797 0.999639 0.999388 0.999008 0.998461 0.997712 0.996733 0.99551 0.994044 0.992356 0.990482 0.98847 0.986374 0.984248 0.982142 0.980094 0.978131 0.976267 0.974506 0.972841 0.97126 0.969749 0.968292 0.966877 0.965493 0.964131 0.962785 0.961451 0.960126 0.958808 0.957493 0.95618 0.954867 0.953551 0.95223 0.950902 0.949565 0.948216 0.946852 0.945471 0.94407 0.942645 0.941193 0.93971 0.938191 0.936631 0.935022 0.933359 0.931632 0.92983 0.927941 0.925949 0.923832 0.921563 0.919123 0.916479 0.913499 0.910105 0.906581 0.902712 0.896606 0.889342 0.886123 0.882184 0.882184 
1.09432 1.0941 1.08654 1.08663 1.09167 1.09075 1.08959 1.09004 1.09037 1.09023 1.09006 1.09 1.08991 1.08981 1.08967 1.08958 1.08944 1.08935 1.08921 1.08913 1.08899 1.08891 1.08878 1.08869 1.08856 1.08847 1.08835 1.08825 1.08813 1.08802 1.08789 1.08778 1.08764 1.08751 1.08737 1.08722 1.08706 1.0869 1.08672 1.08652 1.08631 1.08608 1.08583 1.08556 1.08525 1.0849 1.08451 1.08402 1.08339 1.08253 1.08131 1.07959 1.0772 1.07396 1.06967 1.06415 1.05728 1.04911 1.04006 1.03085 1.02233 1.01518 1.00971 1.00586 1.00334 1.00181 1.00093 1.00046 1.00021 1.00009 1.00004 1.00002 1.00001 1 1 1 1 1 1 1 1 1 1 1 1 1 1 1 1 1 1 1 1 1 1 1 1 1 1 1 1 1 1 1 1 1 1 1 1 1 1 1 1 1 1 1 1 1 1 1 1 1 1 1 1 1 1 1 1 1 1 1 1 1 1 1 1 1 1 1 1 1 1 1 1 1 1 1 1 1 1 1 1 1 1 1 1 1 1 1 1 1 1 1 1 1 1 1 1 1 1 1 1 1 1 1 1 1 1 1 1 1 1 1 0.999999 0.999998 0.999994 0.999987 0.999972 0.999942 0.999886 0.999788 0.999624 0.999364 0.998973 0.998414 0.99765 0.996658 0.995423 0.993952 0.992264 0.990398 0.9884 0.986323 0.98422 0.982136 0.980109 0.978163 0.976313 0.97456 0.972899 0.971319 0.969807 0.968348 0.96693 0.965543 0.964178 0.962831 0.961495 0.960169 0.95885 0.957534 0.95622 0.954906 0.95359 0.952268 0.95094 0.949603 0.948253 0.94689 0.94551 0.944109 0.942686 0.941237 0.939756 0.938241 0.936686 0.935085 0.933431 0.931716 0.92993 0.928061 0.926097 0.924021 0.921809 0.919426 0.916872 0.914133 0.911021 0.90744 0.904006 0.900472 0.89503 0.890279 0.887509 0.887509 
1.09621 1.08936 1.0874 1.09201 1.09054 1.08887 1.08988 1.09035 1.09005 1.08991 1.08993 1.0899 1.08977 1.08969 1.08956 1.08948 1.08934 1.08927 1.08912 1.08905 1.08891 1.08883 1.0887 1.08862 1.08848 1.0884 1.08827 1.08817 1.08804 1.08794 1.08781 1.08769 1.08755 1.08742 1.08727 1.08712 1.08695 1.08678 1.08659 1.08639 1.08617 1.08593 1.08566 1.08537 1.08504 1.08467 1.08423 1.0837 1.083 1.08207 1.08079 1.07904 1.07669 1.07359 1.06957 1.06444 1.058 1.05023 1.04143 1.03226 1.02359 1.01618 1.01042 1.00633 1.00363 1.00198 1.00102 1.0005 1.00023 1.0001 1.00004 1.00002 1.00001 1 1 1 1 1 1 1 1 1 1 1 1 1 1 1 1 1 1 1 1 1 1 1 1 1 1 1 1 1 1 1 1 1 1 1 1 1 1 1 1 1 1 1 1 1 1 1 1 1 1 1 1 1 1 1 1 1 1 1 1 1 1 1 1 1 1 1 1 1 1 1 1 1 1 1 1 1 1 1 1 1 1 1 1 1 1 1 1 1 1 1 1 1 1 1 1 1 1 1 1 1 1 1 1 1 1 1 1 1 1 1 0.999999 0.999997 0.999994 0.999986 0.999971 0.99994 0.999883 0.999782 0.999615 0.99935 0.998952 0.998384 0.997613 0.996612 0.995372 0.993899 0.992215 0.990357 0.988373 0.986315 0.984231 0.982168 0.980159 0.978228 0.976388 0.974641 0.972983 0.971403 0.969889 0.968427 0.967006 0.965616 0.964249 0.9629 0.961563 0.960236 0.958915 0.957599 0.956284 0.95497 0.953653 0.952332 0.951004 0.949667 0.948319 0.946957 0.945578 0.944181 0.942761 0.941316 0.939841 0.938333 0.936786 0.935196 0.933555 0.931857 0.930094 0.928255 0.926327 0.924297 0.922156 0.919874 0.917405 0.914776 0.91204 0.908922 0.905279 0.901974 0.898741 0.894976 0.891938 0.891938 
1.08744 1.08986 1.09133 1.09016 1.08886 1.08996 1.09022 1.08976 1.08973 1.08986 1.08981 1.08972 1.08962 1.08957 1.08945 1.08938 1.08924 1.08917 1.08903 1.08896 1.08882 1.08875 1.08861 1.08854 1.0884 1.08832 1.08819 1.08809 1.08796 1.08785 1.08772 1.08759 1.08745 1.08732 1.08716 1.08701 1.08684 1.08666 1.08646 1.08625 1.08602 1.08577 1.08549 1.08518 1.08483 1.08443 1.08395 1.08336 1.08261 1.08162 1.08029 1.07852 1.07622 1.07327 1.06952 1.06475 1.05873 1.05133 1.04276 1.03362 1.02481 1.01715 1.01112 1.00679 1.00391 1.00213 1.0011 1.00054 1.00025 1.00011 1.00005 1.00002 1.00001 1 1 1 1 1 1 1 1 1 1 1 1 1 1 1 1 1 1 1 1 1 1 1 1 1 1 1 1 1 1 1 1 1 1 1 1 1 1 1 1 1 1 1 1 1 1 1 1 1 1 1 1 1 1 1 1 1 1 1 1 1 1 1 1 1 1 1 1 1 1 1 1 1 1 1 1 1 1 1 1 1 1 1 1 1 1 1 1 1 1 1 1 1 1 1 1 1 1 1 1 1 1 1 1 1 1 1 1 1 1 1 0.999999 0.999997 0.999994 0.999986 0.99997 0.999939 0.999882 0.999781 0.999612 0.999345 0.998945 0.998374 0.997599 0.996596 0.995356 0.993885 0.992206 0.990359 0.988388 0.986346 0.984281 0.982234 0.980241 0.978322 0.976491 0.974749 0.973093 0.971512 0.969996 0.968531 0.967107 0.965714 0.964344 0.962993 0.961654 0.960325 0.959004 0.957687 0.956372 0.955057 0.953741 0.95242 0.951093 0.949757 0.94841 0.947051 0.945675 0.944281 0.942866 0.941426 0.939958 0.938459 0.936923 0.935346 0.933722 0.932045 0.930307 0.928501 0.926617 0.92464 0.922559 0.920375 0.918059 0.915551 0.912912 0.910244 0.907258 0.904016 0.901025 0.897979 0.895158 0.895158 
1.0898 1.09004 1.08996 1.08928 1.08987 1.09006 1.08956 1.0896 1.08976 1.0897 1.08959 1.08957 1.0895 1.08944 1.08932 1.08926 1.08913 1.08907 1.08893 1.08887 1.08873 1.08867 1.08853 1.08845 1.08832 1.08823 1.0881 1.088 1.08787 1.08776 1.08762 1.0875 1.08735 1.08721 1.08706 1.0869 1.08672 1.08653 1.08633 1.08611 1.08587 1.0856 1.08531 1.08498 1.08461 1.08418 1.08366 1.08303 1.08222 1.08118 1.07981 1.07804 1.07581 1.07301 1.06951 1.06509 1.05946 1.05241 1.04406 1.03496 1.02601 1.0181 1.0118 1.00723 1.00418 1.00229 1.00119 1.00058 1.00027 1.00012 1.00005 1.00002 1.00001 1 1 1 1 1 1 1 1 1 1 1 1 1 1 1 1 1 1 1 1 1 1 1 1 1 1 1 1 1 1 1 1 1 1 1 1 1 1 1 1 1 1 1 1 1 1 1 1 1 1 1 1 1 1 1 1 1 1 1 1 1 1 1 1 1 1 1 1 1 1 1 1 1 1 1 1 1 1 1 1 1 1 1 1 1 1 1 1 1 1 1 1 1 1 1 1 1 1 1 1 1 1 1 1 1 1 1 1 1 1 1 0.999999 0.999998 0.999994 0.999986 0.999971 0.99994 0.999883 0.999782 0.999614 0.999349 0.99895 0.99838 0.997608 0.996609 0.995373 0.993908 0.992239 0.990402 0.988446 0.986418 0.984368 0.982336 0.980355 0.978446 0.976622 0.974883 0.973228 0.971646 0.970127 0.968659 0.967232 0.965835 0.964463 0.963109 0.961769 0.960439 0.959116 0.957798 0.956483 0.955168 0.953852 0.952532 0.951206 0.949871 0.948527 0.94717 0.945798 0.944408 0.942998 0.941565 0.940105 0.938615 0.937091 0.935529 0.933923 0.932269 0.930559 0.928786 0.926945 0.925026 0.923015 0.920901 0.9187 0.916385 0.913888 0.911303 0.90871 0.905932 0.90311 0.900404 0.897846 0.897846 
1.09037 1.08963 1.08943 1.08971 1.08985 1.08948 1.08951 1.08967 1.08956 1.08949 1.08947 1.08945 1.08935 1.08931 1.0892 1.08915 1.08902 1.08897 1.08883 1.08878 1.08864 1.08858 1.08843 1.08837 1.08823 1.08815 1.08801 1.08791 1.08778 1.08767 1.08753 1.0874 1.08725 1.08711 1.08694 1.08678 1.08659 1.0864 1.08619 1.08596 1.08571 1.08543 1.08512 1.08478 1.08438 1.08392 1.08337 1.08269 1.08184 1.08075 1.07936 1.0776 1.07543 1.07279 1.06955 1.06546 1.0602 1.05349 1.04534 1.03627 1.02718 1.01903 1.01246 1.00766 1.00444 1.00243 1.00126 1.00062 1.00029 1.00013 1.00005 1.00002 1.00001 1 1 1 1 1 1 1 1 1 1 1 1 1 1 1 1 1 1 1 1 1 1 1 1 1 1 1 1 1 1 1 1 1 1 1 1 1 1 1 1 1 1 1 1 1 1 1 1 1 1 1 1 1 1 1 1 1 1 1 1 1 1 1 1 1 1 1 1 1 1 1 1 1 1 1 1 1 1 1 1 1 1 1 1 1 1 1 1 1 1 1 1 1 1 1 1 1 1 1 1 1 1 1 1 1 1 1 1 1 1 1 0.999999 0.999998 0.999994 0.999987 0.999972 0.999942 0.999886 0.999787 0.999622 0.99936 0.998967 0.998404 0.997639 0.996649 0.995423 0.993969 0.992311 0.990488 0.988545 0.986531 0.984494 0.982474 0.980503 0.978601 0.976781 0.975045 0.973388 0.971804 0.970282 0.968811 0.96738 0.96598 0.964605 0.963249 0.961907 0.960575 0.959251 0.957933 0.956617 0.955303 0.953987 0.952667 0.951342 0.95001 0.948668 0.947314 0.945945 0.94456 0.943156 0.94173 0.940279 0.9388 0.937289 0.935742 0.934155 0.932523 0.930842 0.929104 0.927304 0.925436 0.923495 0.921466 0.919343 0.91715 0.914864 0.912444 0.909981 0.907488 0.904923 0.902404 0.900033 0.900033 
1.08942 1.08953 1.0896 1.0896 1.08944 1.08943 1.08953 1.08945 1.08937 1.08939 1.08935 1.0893 1.08922 1.08918 1.08908 1.08903 1.08891 1.08886 1.08873 1.08868 1.08854 1.08848 1.08834 1.08827 1.08813 1.08805 1.08791 1.08782 1.08768 1.08757 1.08742 1.0873 1.08714 1.08699 1.08683 1.08666 1.08647 1.08627 1.08605 1.08581 1.08554 1.08525 1.08493 1.08456 1.08415 1.08366 1.08307 1.08236 1.08146 1.08034 1.07892 1.07719 1.0751 1.07262 1.06962 1.06586 1.06095 1.05456 1.04661 1.03756 1.02833 1.01993 1.0131 1.00807 1.00469 1.00257 1.00134 1.00066 1.00031 1.00014 1.00006 1.00002 1.00001 1 1 1 1 1 1 1 1 1 1 1 1 1 1 1 1 1 1 1 1 1 1 1 1 1 1 1 1 1 1 1 1 1 1 1 1 1 1 1 1 1 1 1 1 1 1 1 1 1 1 1 1 1 1 1 1 1 1 1 1 1 1 1 1 1 1 1 1 1 1 1 1 1 1 1 1 1 1 1 1 1 1 1 1 1 1 1 1 1 1 1 1 1 1 1 1 1 1 1 1 1 1 1 1 1 1 1 1 1 1 1 0.999999 0.999998 0.999995 0.999988 0.999973 0.999944 0.99989 0.999795 0.999635 0.99938 0.998995 0.998443 0.997691 0.996715 0.995504 0.994066 0.992423 0.990614 0.988685 0.986684 0.984658 0.982648 0.980684 0.978788 0.976969 0.975233 0.973575 0.971988 0.970462 0.968986 0.967552 0.966149 0.964771 0.963412 0.962068 0.960735 0.95941 0.958091 0.956775 0.95546 0.954144 0.952826 0.951502 0.950172 0.948832 0.947481 0.946117 0.944737 0.943339 0.941921 0.940479 0.93901 0.937512 0.935981 0.934413 0.932804 0.93115 0.929447 0.927688 0.925868 0.923984 0.922035 0.920006 0.917896 0.915732 0.913493 0.911176 0.908838 0.906483 0.904133 0.901893 0.901893 
1.08942 1.08944 1.08942 1.08937 1.08934 1.0894 1.08934 1.08928 1.08928 1.08927 1.08919 1.08917 1.08909 1.08906 1.08895 1.08892 1.0888 1.08875 1.08862 1.08858 1.08844 1.08838 1.08824 1.08818 1.08803 1.08796 1.08781 1.08772 1.08758 1.08747 1.08732 1.08719 1.08703 1.08688 1.08671 1.08653 1.08633 1.08613 1.0859 1.08565 1.08538 1.08507 1.08473 1.08435 1.08391 1.08339 1.08277 1.08202 1.08109 1.07993 1.07851 1.0768 1.0748 1.07249 1.06974 1.06629 1.06172 1.05562 1.04785 1.03882 1.02944 1.02081 1.01372 1.00847 1.00492 1.0027 1.0014 1.00069 1.00032 1.00014 1.00006 1.00002 1.00001 1 1 1 1 1 1 1 1 1 1 1 1 1 1 1 1 1 1 1 1 1 1 1 1 1 1 1 1 1 1 1 1 1 1 1 1 1 1 1 1 1 1 1 1 1 1 1 1 1 1 1 1 1 1 1 1 1 1 1 1 1 1 1 1 1 1 1 1 1 1 1 1 1 1 1 1 1 1 1 1 1 1 1 1 1 1 1 1 1 1 1 1 1 1 1 1 1 1 1 1 1 1 1 1 1 1 1 1 1 1 1 0.999999 0.999998 0.999995 0.999988 0.999975 0.999948 0.999896 0.999805 0.999652 0.999406 0.999033 0.998497 0.997762 0.996806 0.995615 0.994197 0.992573 0.990781 0.988866 0.986878 0.984862 0.982859 0.9809 0.979006 0.977188 0.97545 0.973789 0.972198 0.970667 0.969187 0.967748 0.966341 0.96496 0.963598 0.962252 0.960917 0.959591 0.958271 0.956955 0.955641 0.954325 0.953008 0.951686 0.950357 0.94902 0.947673 0.946313 0.944938 0.943547 0.942136 0.940703 0.939245 0.937761 0.936245 0.934696 0.93311 0.931483 0.92981 0.92809 0.926318 0.924487 0.922599 0.920654 0.918641 0.916566 0.914447 0.912273 0.910061 0.907841 0.905629 0.903497 0.903497 
1.08938 1.08927 1.08925 1.08925 1.08926 1.08923 1.08918 1.08919 1.08915 1.08912 1.08907 1.08904 1.08896 1.08893 1.08883 1.0888 1.08868 1.08864 1.08851 1.08847 1.08833 1.08828 1.08814 1.08808 1.08793 1.08785 1.08771 1.08762 1.08747 1.08736 1.08721 1.08707 1.08691 1.08676 1.08658 1.0864 1.0862 1.08598 1.08574 1.08549 1.0852 1.08489 1.08453 1.08413 1.08366 1.08312 1.08247 1.08169 1.08072 1.07954 1.07812 1.07645 1.07455 1.0724 1.0699 1.06675 1.06251 1.05669 1.04908 1.04005 1.03053 1.02166 1.01431 1.00885 1.00514 1.00282 1.00147 1.00072 1.00034 1.00015 1.00006 1.00003 1.00001 1 1 1 1 1 1 1 1 1 1 1 1 1 1 1 1 1 1 1 1 1 1 1 1 1 1 1 1 1 1 1 1 1 1 1 1 1 1 1 1 1 1 1 1 1 1 1 1 1 1 1 1 1 1 1 1 1 1 1 1 1 1 1 1 1 1 1 1 1 1 1 1 1 1 1 1 1 1 1 1 1 1 1 1 1 1 1 1 1 1 1 1 1 1 1 1 1 1 1 1 1 1 1 1 1 1 1 1 1 1 1 0.999999 0.999998 0.999995 0.999989 0.999977 0.999951 0.999904 0.999818 0.999672 0.999437 0.99908 0.998562 0.997851 0.996919 0.995754 0.99436 0.99276 0.990987 0.989089 0.987113 0.985106 0.983109 0.981152 0.979258 0.977439 0.975697 0.974031 0.972435 0.970899 0.969413 0.967969 0.966558 0.965174 0.963809 0.96246 0.961124 0.959797 0.958476 0.957159 0.955844 0.95453 0.953213 0.951893 0.950566 0.949232 0.947888 0.946533 0.945163 0.943778 0.942375 0.940951 0.939505 0.938033 0.936533 0.935002 0.933438 0.931836 0.930194 0.928509 0.926779 0.925 0.923168 0.921286 0.919355 0.917369 0.915339 0.913274 0.911176 0.909062 0.906957 0.904911 0.904911 
1.08918 1.08913 1.08914 1.08913 1.08911 1.08909 1.08907 1.08906 1.08901 1.08899 1.08894 1.08891 1.08884 1.08881 1.08871 1.08868 1.08856 1.08853 1.0884 1.08836 1.08822 1.08817 1.08803 1.08797 1.08783 1.08775 1.08761 1.08751 1.08736 1.08725 1.08709 1.08696 1.08679 1.08663 1.08645 1.08626 1.08605 1.08583 1.08559 1.08532 1.08502 1.08469 1.08432 1.0839 1.08342 1.08285 1.08217 1.08135 1.08036 1.07916 1.07774 1.07613 1.07433 1.07236 1.0701 1.06725 1.06332 1.05776 1.0503 1.04127 1.03159 1.02248 1.01488 1.00921 1.00535 1.00294 1.00152 1.00075 1.00035 1.00016 1.00007 1.00003 1.00001 1 1 1 1 1 1 1 1 1 1 1 1 1 1 1 1 1 1 1 1 1 1 1 1 1 1 1 1 1 1 1 1 1 1 1 1 1 1 1 1 1 1 1 1 1 1 1 1 1 1 1 1 1 1 1 1 1 1 1 1 1 1 1 1 1 1 1 1 1 1 1 1 1 1 1 1 1 1 1 1 1 1 1 1 1 1 1 1 1 1 1 1 1 1 1 1 1 1 1 1 1 1 1 1 1 1 1 1 1 1 1 0.999999 0.999998 0.999996 0.999991 0.999979 0.999956 0.999911 0.999832 0.999695 0.999474 0.999134 0.998639 0.997955 0.997052 0.995918 0.994555 0.992981 0.991232 0.989352 0.987389 0.98539 0.983397 0.981441 0.979545 0.977721 0.975975 0.974303 0.972699 0.971157 0.969666 0.968216 0.966801 0.965412 0.964044 0.962693 0.961355 0.960026 0.958704 0.957387 0.956072 0.954758 0.953442 0.952123 0.950799 0.949467 0.948127 0.946776 0.945412 0.944033 0.942638 0.941223 0.939787 0.938328 0.936843 0.93533 0.933786 0.932209 0.930595 0.928944 0.927251 0.925516 0.923738 0.921913 0.920046 0.918137 0.916187 0.914205 0.912197 0.910173 0.908153 0.906178 0.906178 
1.08905 1.089 1.089 1.08899 1.08898 1.08897 1.08895 1.08892 1.08889 1.08887 1.08881 1.08878 1.08871 1.08868 1.08859 1.08856 1.08845 1.08841 1.08829 1.08825 1.08811 1.08806 1.08792 1.08786 1.08772 1.08764 1.0875 1.0874 1.08725 1.08713 1.08698 1.08684 1.08667 1.0865 1.08632 1.08612 1.08591 1.08568 1.08542 1.08515 1.08484 1.0845 1.08411 1.08367 1.08316 1.08257 1.08187 1.08102 1.08 1.07879 1.07739 1.07583 1.07416 1.07237 1.07035 1.06779 1.06415 1.05883 1.05151 1.04245 1.03262 1.02327 1.01543 1.00955 1.00555 1.00304 1.00158 1.00078 1.00036 1.00016 1.00007 1.00003 1.00001 1 1 1 1 1 1 1 1 1 1 1 1 1 1 1 1 1 1 1 1 1 1 1 1 1 1 1 1 1 1 1 1 1 1 1 1 1 1 1 1 1 1 1 1 1 1 1 1 1 1 1 1 1 1 1 1 1 1 1 1 1 1 1 1 1 1 1 1 1 1 1 1 1 1 1 1 1 1 1 1 1 1 1 1 1 1 1 1 1 1 1 1 1 1 1 1 1 1 1 1 1 1 1 1 1 1 1 1 1 1 1 0.999999 0.999999 0.999996 0.999992 0.999981 0.99996 0.99992 0.999846 0.99972 0.999513 0.999194 0.998725 0.998071 0.997204 0.996106 0.994778 0.993237 0.991514 0.989655 0.987706 0.985715 0.983725 0.981768 0.979868 0.978039 0.976284 0.974604 0.972993 0.971443 0.969945 0.96849 0.967069 0.965676 0.964305 0.962951 0.96161 0.960279 0.958956 0.957638 0.956323 0.955009 0.953694 0.952377 0.951055 0.949726 0.948389 0.947043 0.945684 0.944312 0.942924 0.941518 0.940093 0.938646 0.937176 0.935679 0.934155 0.9326 0.931013 0.929392 0.927734 0.926039 0.924306 0.922533 0.920722 0.918875 0.916994 0.915082 0.913148 0.911198 0.909248 0.907333 0.907333 
1.08893 1.08887 1.08887 1.08886 1.08885 1.08884 1.08881 1.08879 1.08876 1.08874 1.08868 1.08866 1.08859 1.08856 1.08847 1.08844 1.08833 1.0883 1.08817 1.08814 1.088 1.08795 1.08781 1.08775 1.08761 1.08753 1.08738 1.08728 1.08713 1.08701 1.08686 1.08671 1.08654 1.08637 1.08618 1.08598 1.08576 1.08552 1.08526 1.08497 1.08465 1.08429 1.08389 1.08343 1.08291 1.08229 1.08156 1.08069 1.07965 1.07843 1.07706 1.07557 1.07402 1.07242 1.07065 1.06837 1.065 1.05991 1.0527 1.04361 1.03361 1.02402 1.01594 1.00987 1.00573 1.00314 1.00163 1.0008 1.00037 1.00017 1.00007 1.00003 1.00001 1 1 1 1 1 1 1 1 1 1 1 1 1 1 1 1 1 1 1 1 1 1 1 1 1 1 1 1 1 1 1 1 1 1 1 1 1 1 1 1 1 1 1 1 1 1 1 1 1 1 1 1 1 1 1 1 1 1 1 1 1 1 1 1 1 1 1 1 1 1 1 1 1 1 1 1 1 1 1 1 1 1 1 1 1 1 1 1 1 1 1 1 1 1 1 1 1 1 1 1 1 1 1 1 1 1 1 1 1 1 1 1 0.999999 0.999997 0.999993 0.999984 0.999965 0.999929 0.999862 0.999746 0.999556 0.999258 0.998818 0.998199 0.997371 0.996315 0.995027 0.993523 0.991832 0.989997 0.988064 0.986082 0.984095 0.982135 0.980229 0.978392 0.976628 0.974938 0.973318 0.971759 0.970253 0.96879 0.967364 0.965966 0.964591 0.963233 0.96189 0.960557 0.959233 0.957914 0.956599 0.955285 0.953971 0.952655 0.951335 0.950009 0.948675 0.947333 0.945979 0.944613 0.943233 0.941836 0.940421 0.938986 0.93753 0.936049 0.934543 0.93301 0.931447 0.929853 0.928228 0.926568 0.924875 0.923147 0.921386 0.919592 0.917768 0.915917 0.914043 0.912155 0.910264 0.9084 0.9084 
1.08879 1.08873 1.08874 1.08873 1.08872 1.08871 1.08868 1.08867 1.08863 1.08861 1.08856 1.08853 1.08846 1.08844 1.08835 1.08832 1.08821 1.08818 1.08805 1.08802 1.08788 1.08784 1.0877 1.08764 1.08749 1.08741 1.08727 1.08717 1.08701 1.08689 1.08673 1.08658 1.08641 1.08623 1.08604 1.08583 1.0856 1.08536 1.08509 1.08479 1.08446 1.08409 1.08367 1.08319 1.08264 1.082 1.08125 1.08035 1.0793 1.07809 1.07675 1.07534 1.07393 1.07253 1.071 1.06899 1.06589 1.061 1.05388 1.04475 1.03457 1.02475 1.01643 1.01017 1.0059 1.00323 1.00167 1.00082 1.00038 1.00017 1.00007 1.00003 1.00001 1 1 1 1 1 1 1 1 1 1 1 1 1 1 1 1 1 1 1 1 1 1 1 1 1 1 1 1 1 1 1 1 1 1 1 1 1 1 1 1 1 1 1 1 1 1 1 1 1 1 1 1 1 1 1 1 1 1 1 1 1 1 1 1 1 1 1 1 1 1 1 1 1 1 1 1 1 1 1 1 1 1 1 1 1 1 1 1 1 1 1 1 1 1 1 1 1 1 1 1 1 1 1 1 1 1 1 1 1 1 1 1 0.999999 0.999997 0.999994 0.999986 0.999969 0.999937 0.999878 0.999773 0.999599 0.999325 0.998916 0.998334 0.99755 0.99654 0.995299 0.993838 0.992184 0.990376 0.988463 0.986491 0.984506 0.982544 0.98063 0.978782 0.977007 0.975306 0.973674 0.972105 0.97059 0.969119 0.967686 0.966283 0.964903 0.963542 0.962196 0.960861 0.959535 0.958215 0.956899 0.955585 0.954272 0.952957 0.951639 0.950315 0.948985 0.947647 0.946299 0.944939 0.943565 0.942177 0.940772 0.939349 0.937905 0.93644 0.934951 0.933437 0.931897 0.930329 0.928731 0.927104 0.925446 0.923758 0.92204 0.920292 0.918517 0.916717 0.914896 0.91306 0.911219 0.909399 0.909399 
1.08866 1.0886 1.0886 1.0886 1.08859 1.08858 1.08856 1.08854 1.0885 1.08848 1.08843 1.08841 1.08834 1.08831 1.08822 1.0882 1.08809 1.08806 1.08794 1.0879 1.08777 1.08772 1.08758 1.08752 1.08737 1.08729 1.08714 1.08704 1.08689 1.08677 1.0866 1.08645 1.08627 1.08609 1.08589 1.08568 1.08544 1.08519 1.08491 1.0846 1.08426 1.08387 1.08344 1.08295 1.08238 1.08171 1.08093 1.08001 1.07895 1.07775 1.07646 1.07515 1.07389 1.07269 1.0714 1.06965 1.0668 1.06209 1.05505 1.04585 1.0355 1.02543 1.01688 1.01044 1.00605 1.00331 1.00171 1.00084 1.00039 1.00017 1.00007 1.00003 1.00001 1 1 1 1 1 1 1 1 1 1 1 1 1 1 1 1 1 1 1 1 1 1 1 1 1 1 1 1 1 1 1 1 1 1 1 1 1 1 1 1 1 1 1 1 1 1 1 1 1 1 1 1 1 1 1 1 1 1 1 1 1 1 1 1 1 1 1 1 1 1 1 1 1 1 1 1 1 1 1 1 1 1 1 1 1 1 1 1 1 1 1 1 1 1 1 1 1 1 1 1 1 1 1 1 1 1 1 1 1 1 1 1 0.999999 0.999998 0.999995 0.999988 0.999974 0.999946 0.999893 0.9998 0.999643 0.999393 0.999016 0.998475 0.997738 0.996779 0.995591 0.994179 0.992567 0.990792 0.988901 0.986943 0.984961 0.982995 0.981073 0.979213 0.977424 0.975709 0.974065 0.972483 0.970957 0.969478 0.968037 0.966627 0.965242 0.963877 0.962528 0.96119 0.959862 0.958541 0.957225 0.955911 0.954598 0.953284 0.951967 0.950647 0.94932 0.947985 0.946642 0.945288 0.943921 0.942541 0.941145 0.939733 0.938302 0.93685 0.935378 0.933882 0.932363 0.930818 0.929246 0.927648 0.926022 0.924368 0.922688 0.92098 0.919247 0.917491 0.915715 0.913924 0.912128 0.910345 0.910345 
1.08853 1.08847 1.08847 1.08847 1.08846 1.08845 1.08843 1.08841 1.08838 1.08836 1.0883 1.08828 1.08821 1.08819 1.0881 1.08807 1.08796 1.08794 1.08781 1.08778 1.08765 1.0876 1.08746 1.0874 1.08725 1.08717 1.08702 1.08692 1.08676 1.08663 1.08647 1.08631 1.08613 1.08595 1.08574 1.08552 1.08528 1.08502 1.08473 1.08441 1.08405 1.08365 1.0832 1.08269 1.0821 1.08141 1.08061 1.07967 1.07861 1.07743 1.0762 1.075 1.0739 1.07291 1.07187 1.07037 1.06774 1.06319 1.0562 1.04692 1.03638 1.02608 1.01731 1.01069 1.00619 1.00338 1.00174 1.00085 1.0004 1.00018 1.00007 1.00003 1.00001 1 1 1 1 1 1 1 1 1 1 1 1 1 1 1 1 1 1 1 1 1 1 1 1 1 1 1 1 1 1 1 1 1 1 1 1 1 1 1 1 1 1 1 1 1 1 1 1 1 1 1 1 1 1 1 1 1 1 1 1 1 1 1 1 1 1 1 1 1 1 1 1 1 1 1 1 1 1 1 1 1 1 1 1 1 1 1 1 1 1 1 1 1 1 1 1 1 1 1 1 1 1 1 1 1 1 1 1 1 1 1 1 0.999999 0.999998 0.999996 0.99999 0.999978 0.999954 0.999908 0.999826 0.999686 0.999461 0.999117 0.998619 0.997932 0.997029 0.995898 0.994541 0.992977 0.991242 0.989379 0.987436 0.98546 0.98349 0.981558 0.979685 0.977881 0.97615 0.97449 0.972895 0.971357 0.969867 0.968418 0.967001 0.96561 0.96424 0.962887 0.961546 0.960216 0.958893 0.957576 0.956262 0.954949 0.953636 0.952321 0.951003 0.949679 0.948348 0.947009 0.945661 0.944301 0.942928 0.941541 0.940139 0.93872 0.937282 0.935824 0.934346 0.932845 0.931321 0.929774 0.928201 0.926604 0.924981 0.923333 0.921661 0.919965 0.918248 0.916511 0.914759 0.913 0.911251 0.911251 
1.0884 1.08834 1.08834 1.08834 1.08833 1.08832 1.0883 1.08828 1.08825 1.08823 1.08818 1.08815 1.08808 1.08806 1.08797 1.08795 1.08784 1.08781 1.08769 1.08766 1.08752 1.08748 1.08734 1.08727 1.08713 1.08705 1.08689 1.08679 1.08663 1.0865 1.08633 1.08617 1.08598 1.08579 1.08558 1.08536 1.08511 1.08484 1.08454 1.08421 1.08384 1.08343 1.08296 1.08243 1.08182 1.08111 1.08028 1.07934 1.07827 1.07713 1.07597 1.0749 1.07397 1.07319 1.07239 1.07113 1.0687 1.06429 1.05733 1.04796 1.03722 1.02668 1.0177 1.01092 1.00631 1.00344 1.00177 1.00087 1.0004 1.00018 1.00007 1.00003 1.00001 1 1 1 1 1 1 1 1 1 1 1 1 1 1 1 1 1 1 1 1 1 1 1 1 1 1 1 1 1 1 1 1 1 1 1 1 1 1 1 1 1 1 1 1 1 1 1 1 1 1 1 1 1 1 1 1 1 1 1 1 1 1 1 1 1 1 1 1 1 1 1 1 1 1 1 1 1 1 1 1 1 1 1 1 1 1 1 1 1 1 1 1 1 1 1 1 1 1 1 1 1 1 1 1 1 1 1 1 1 1 1 1 0.999999 0.999999 0.999996 0.999992 0.999982 0.999961 0.999922 0.99985 0.999728 0.999527 0.999218 0.998763 0.998129 0.997286 0.996217 0.994921 0.993412 0.991722 0.989892 0.98797 0.986002 0.984031 0.98209 0.980202 0.97838 0.976632 0.974954 0.973343 0.971791 0.970289 0.968829 0.967404 0.966007 0.964631 0.963274 0.96193 0.960597 0.959273 0.957954 0.956639 0.955326 0.954014 0.9527 0.951384 0.950063 0.948736 0.947401 0.946058 0.944704 0.943339 0.94196 0.940568 0.939159 0.937734 0.93629 0.934828 0.933344 0.93184 0.930314 0.928765 0.927193 0.925598 0.923979 0.922338 0.920675 0.918992 0.917289 0.915572 0.913846 0.912127 0.912127 
1.08827 1.08821 1.08821 1.0882 1.0882 1.08819 1.08817 1.08815 1.08812 1.0881 1.08805 1.08802 1.08796 1.08793 1.08784 1.08782 1.08771 1.08769 1.08756 1.08753 1.0874 1.08735 1.08721 1.08715 1.087 1.08692 1.08676 1.08665 1.08649 1.08636 1.08618 1.08602 1.08583 1.08564 1.08542 1.08519 1.08493 1.08465 1.08434 1.084 1.08362 1.08319 1.08271 1.08216 1.08153 1.08079 1.07995 1.079 1.07795 1.07685 1.07579 1.07485 1.07411 1.07355 1.07297 1.07193 1.06969 1.06539 1.05843 1.04895 1.03801 1.02724 1.01806 1.01113 1.00642 1.00349 1.0018 1.00088 1.00041 1.00018 1.00007 1.00003 1.00001 1 1 1 1 1 1 1 1 1 1 1 1 1 1 1 1 1 1 1 1 1 1 1 1 1 1 1 1 1 1 1 1 1 1 1 1 1 1 1 1 1 1 1 1 1 1 1 1 1 1 1 1 1 1 1 1 1 1 1 1 1 1 1 1 1 1 1 1 1 1 1 1 1 1 1 1 1 1 1 1 1 1 1 1 1 1 1 1 1 1 1 1 1 1 1 1 1 1 1 1 1 1 1 1 1 1 1 1 1 1 1 1 1 0.999999 0.999997 0.999993 0.999985 0.999968 0.999935 0.999874 0.999767 0.999591 0.999315 0.998905 0.998325 0.997545 0.996543 0.995314 0.993867 0.99223 0.99044 0.988544 0.986589 0.984618 0.982668 0.980765 0.978925 0.977156 0.975459 0.97383 0.972261 0.970746 0.969274 0.967839 0.966434 0.965052 0.96369 0.962342 0.961006 0.959679 0.958359 0.957043 0.95573 0.954418 0.953106 0.951791 0.950472 0.949149 0.947818 0.94648 0.945132 0.943774 0.942403 0.941019 0.939621 0.938208 0.936777 0.935329 0.933862 0.932375 0.930868 0.929341 0.927792 0.926221 0.924629 0.923016 0.921382 0.919728 0.918056 0.916369 0.914674 0.912982 0.912982 