# vtk DataFile Version 3.0
LBM simulation at step 260
ASCII
DATASET STRUCTURED_POINTS
DIMENSIONS 256 256 1
ORIGIN 0 0 0
SPACING 1 1 1
POINT_DATA 65536
SCALARS density float
LOOKUP_TABLE default
0.741832 1.08853 1.13525 1.09295 1.0847 1.09348 1.0952 1.09334 1.09269 1.0928 1.09271 1.0925 1.09235 1.09225 1.09216 1.09207 1.09199 1.09193 1.09186 1.09181 1.09176 1.09171 1.09166 1.09161 1.09157 1.09153 1.09149 1.09145 1.09142 1.09138 1.09135 1.09132 1.09128 1.09125 1.09122 1.0912 1.09117 1.09114 1.09111 1.09109 1.09106 1.09104 1.09102 1.09099 1.09097 1.09095 1.09093 1.0909 1.09088 1.09086 1.09084 1.09082 1.0908 1.09078 1.09076 1.09074 1.09073 1.09071 1.09069 1.09067 1.09065 1.09063 1.09062 1.0906 1.09058 1.09056 1.09055 1.09053 1.09051 1.0905 1.09048 1.09046 1.09045 1.09043 1.09041 1.09039 1.09038 1.09036 1.09034 1.09033 1.09031 1.09029 1.09028 1.09026 1.09024 1.09022 1.09021 1.09019 1.09017 1.09015 1.09013 1.09011 1.09009 1.09006 1.09004 1.09 1.08996 1.0899 1.08983 1.08974 1.08963 1.08948 1.08928 1.08904 1.08875 1.08839 1.08795 1.08745 1.08686 1.08619 1.08544 1.08462 1.08373 1.08279 1.08179 1.08075 1.07969 1.07861 1.07752 1.07645 1.07538 1.07434 1.07332 1.07233 1.07137 1.07044 1.06955 1.06868 1.06784 1.06703 1.06624 1.06547 1.06472 1.06399 1.06328 1.06259 1.06192 1.06126 1.06062 1.05999 1.05934 1.05864 1.05783 1.05683 1.0555 1.0537 1.05121 1.04782 1.04336 1.0377 1.03087 1.02306 1.01459 1.00595 0.997614 0.989995 0.983371 0.977856 0.973427 0.969965 0.967308 0.965286 0.963743 0.962549 0.961601 0.960822 0.960158 0.959568 0.959026 0.958515 0.958022 0.95754 0.957065 0.956593 0.956124 0.955655 0.955187 0.954719 0.95425 0.95378 0.95331 0.952839 0.952367 0.951893 0.951419 0.950942 0.950465 0.949986 0.949505 0.949022 0.948537 0.948049 0.94756 0.947068 0.946573 0.946076 0.945575 0.945072 0.944565 0.944054 0.94354 0.943022 0.942499 0.941973 0.941441 0.940905 0.940363 0.939815 0.939262 0.938703 0.938137 0.937563 0.936983 0.936394 0.935797 0.935192 0.934576 0.933951 0.933314 0.932666 0.932005 0.931331 0.930643 0.929939 0.929219 0.92848 0.927722 0.926943 0.92614 0.925313 0.924457 0.923572 0.922652 0.921696 0.920698 0.919654 0.918558 0.917403 0.916182 0.914885 0.913499 0.91201 0.910401 0.908648 0.906719 0.904582 0.902184 0.89941 0.896156 0.892502 0.888073 0.880862 0.871433 0.866481 0.844727 0.690193 
1.13161 1.06493 1.05997 1.0951 1.09852 1.09299 1.09206 1.09315 1.09321 1.09281 1.09259 1.09249 1.09238 1.09226 1.09215 1.09207 1.09199 1.09192 1.09186 1.0918 1.09175 1.0917 1.09165 1.09161 1.09156 1.09153 1.09148 1.09145 1.09141 1.09138 1.09134 1.09131 1.09128 1.09125 1.09122 1.09119 1.09116 1.09114 1.09111 1.09108 1.09106 1.09103 1.09101 1.09099 1.09096 1.09094 1.09092 1.0909 1.09087 1.09086 1.09083 1.09081 1.09079 1.09077 1.09075 1.09074 1.09072 1.0907 1.09068 1.09066 1.09064 1.09063 1.09061 1.09059 1.09057 1.09055 1.09054 1.09052 1.0905 1.09048 1.09047 1.09045 1.09043 1.09042 1.0904 1.09038 1.09036 1.09035 1.09033 1.09031 1.0903 1.09028 1.09026 1.09024 1.09023 1.09021 1.09019 1.09017 1.09015 1.09013 1.09011 1.09009 1.09007 1.09004 1.09001 1.08998 1.08993 1.08987 1.0898 1.0897 1.08958 1.08943 1.08923 1.08898 1.08867 1.0883 1.08786 1.08735 1.08675 1.08608 1.08533 1.0845 1.08361 1.08267 1.08167 1.08064 1.07958 1.07851 1.07743 1.07636 1.0753 1.07426 1.07324 1.07226 1.0713 1.07038 1.06948 1.06861 1.06777 1.06696 1.06616 1.06539 1.06463 1.0639 1.06318 1.06247 1.06178 1.06111 1.06044 1.05977 1.05907 1.05831 1.05742 1.05632 1.0549 1.053 1.05046 1.0471 1.04276 1.03735 1.03087 1.02345 1.01537 1.00701 0.998831 0.991231 0.984515 0.978841 0.974226 0.970583 0.967767 0.965614 0.96397 0.962701 0.961699 0.960883 0.960193 0.959586 0.959033 0.958514 0.958017 0.957532 0.957055 0.956583 0.956112 0.955643 0.955174 0.954706 0.954236 0.953767 0.953296 0.952824 0.952352 0.951878 0.951403 0.950926 0.950448 0.949969 0.949487 0.949004 0.948518 0.948031 0.947541 0.947048 0.946553 0.946055 0.945554 0.94505 0.944542 0.944031 0.943516 0.942997 0.942474 0.941946 0.941414 0.940876 0.940333 0.939785 0.939231 0.93867 0.938102 0.937528 0.936946 0.936356 0.935758 0.93515 0.934533 0.933905 0.933266 0.932616 0.931953 0.931276 0.930585 0.929878 0.929154 0.928412 0.92765 0.926866 0.926059 0.925226 0.924364 0.923472 0.922545 0.92158 0.920573 0.919519 0.918411 0.917242 0.916005 0.914689 0.913282 0.911768 0.910128 0.908339 0.906369 0.904167 0.901684 0.898883 0.895597 0.891387 0.886361 0.881509 0.873447 0.850514 0.827902 0.827902 
1.14087 1.06906 1.07789 1.09745 1.09437 1.09178 1.09279 1.09334 1.09297 1.09269 1.0926 1.09249 1.09236 1.09224 1.09215 1.09206 1.09198 1.09192 1.09185 1.0918 1.09174 1.09169 1.09164 1.0916 1.09156 1.09152 1.09148 1.09145 1.0914 1.09137 1.09133 1.09131 1.09127 1.09124 1.09121 1.09119 1.09115 1.09113 1.0911 1.09108 1.09105 1.09103 1.091 1.09098 1.09095 1.09093 1.09091 1.09089 1.09087 1.09085 1.09082 1.09081 1.09078 1.09077 1.09074 1.09073 1.09071 1.09069 1.09067 1.09065 1.09063 1.09062 1.0906 1.09058 1.09056 1.09054 1.09053 1.09051 1.09049 1.09047 1.09046 1.09044 1.09042 1.0904 1.09039 1.09037 1.09035 1.09033 1.09032 1.0903 1.09028 1.09026 1.09025 1.09023 1.09021 1.09019 1.09017 1.09015 1.09014 1.09012 1.0901 1.09007 1.09005 1.09002 1.08999 1.08995 1.08991 1.08985 1.08977 1.08967 1.08954 1.08938 1.08918 1.08892 1.08861 1.08823 1.08778 1.08726 1.08666 1.08598 1.08522 1.0844 1.08351 1.08256 1.08156 1.08053 1.07948 1.07841 1.07733 1.07627 1.07521 1.07418 1.07317 1.07218 1.07123 1.0703 1.06941 1.06854 1.06769 1.06687 1.06607 1.06529 1.06453 1.06379 1.06305 1.06234 1.06163 1.06093 1.06023 1.05952 1.05877 1.05795 1.05699 1.05582 1.05433 1.05239 1.04985 1.04656 1.04238 1.03722 1.03105 1.02396 1.01618 1.00805 0.999971 0.992366 0.985555 0.979732 0.974947 0.971139 0.968179 0.96591 0.964176 0.962839 0.961789 0.960939 0.960226 0.959604 0.959041 0.958516 0.958015 0.957528 0.957049 0.956575 0.956105 0.955635 0.955166 0.954697 0.954227 0.953757 0.953286 0.952814 0.952341 0.951867 0.951392 0.950915 0.950437 0.949957 0.949475 0.948991 0.948505 0.948017 0.947527 0.947034 0.946538 0.94604 0.945538 0.945033 0.944525 0.944014 0.943498 0.942979 0.942455 0.941926 0.941393 0.940855 0.940312 0.939762 0.939207 0.938646 0.938078 0.937502 0.936919 0.936328 0.935729 0.93512 0.934501 0.933873 0.933233 0.932581 0.931916 0.931238 0.930545 0.929836 0.92911 0.928366 0.927601 0.926815 0.926005 0.925169 0.924305 0.923409 0.922478 0.92151 0.920498 0.919439 0.918326 0.917153 0.91591 0.914588 0.913175 0.911656 0.91001 0.908216 0.906246 0.90406 0.901581 0.898757 0.895619 0.891875 0.886749 0.88113 0.877327 0.868027 0.852173 0.852173 
1.05756 1.09347 1.10633 1.08868 1.08852 1.09383 1.09393 1.0927 1.09258 1.09274 1.09262 1.09244 1.09232 1.09223 1.09213 1.09205 1.09197 1.0919 1.09184 1.09178 1.09173 1.09168 1.09163 1.0916 1.09155 1.09151 1.09147 1.09144 1.09139 1.09137 1.09132 1.0913 1.09126 1.09124 1.0912 1.09118 1.09114 1.09112 1.09109 1.09107 1.09104 1.09102 1.09099 1.09097 1.09094 1.09093 1.0909 1.09088 1.09086 1.09084 1.09081 1.0908 1.09077 1.09076 1.09073 1.09072 1.0907 1.09068 1.09066 1.09064 1.09062 1.0906 1.09059 1.09057 1.09055 1.09053 1.09051 1.0905 1.09048 1.09046 1.09044 1.09043 1.09041 1.09039 1.09037 1.09035 1.09034 1.09032 1.0903 1.09028 1.09027 1.09025 1.09023 1.09021 1.09019 1.09017 1.09016 1.09014 1.09012 1.0901 1.09008 1.09005 1.09003 1.09 1.08997 1.08993 1.08988 1.08982 1.08974 1.08964 1.08951 1.08934 1.08913 1.08887 1.08855 1.08817 1.08771 1.08718 1.08658 1.08589 1.08513 1.0843 1.08341 1.08246 1.08146 1.08043 1.07938 1.07831 1.07724 1.07618 1.07513 1.07409 1.07309 1.0721 1.07115 1.07023 1.06933 1.06846 1.06761 1.06679 1.06598 1.0652 1.06443 1.06367 1.06293 1.0622 1.06148 1.06076 1.06003 1.05928 1.05849 1.05762 1.05661 1.05539 1.05385 1.05189 1.04937 1.04614 1.04209 1.03713 1.03121 1.02441 1.0169 1.00898 1.00102 0.993426 0.986543 0.980589 0.97565 0.971688 0.968591 0.966207 0.964384 0.962981 0.961883 0.961 0.960264 0.959627 0.959054 0.958522 0.958017 0.957527 0.957047 0.956572 0.956101 0.955631 0.955161 0.954692 0.954222 0.953752 0.95328 0.952808 0.952335 0.951861 0.951385 0.950908 0.95043 0.949949 0.949467 0.948983 0.948497 0.948009 0.947518 0.947025 0.946529 0.94603 0.945528 0.945023 0.944515 0.944003 0.943487 0.942967 0.942443 0.941914 0.94138 0.940842 0.940298 0.939748 0.939193 0.938631 0.938062 0.937486 0.936903 0.936311 0.935711 0.935102 0.934483 0.933853 0.933213 0.93256 0.931895 0.931216 0.930522 0.929813 0.929086 0.928341 0.927576 0.92679 0.925979 0.925143 0.924278 0.923382 0.922452 0.921483 0.920473 0.919415 0.918304 0.917134 0.915896 0.91458 0.913176 0.911669 0.910043 0.908274 0.906334 0.904202 0.901843 0.899134 0.895985 0.892675 0.889021 0.883167 0.876333 0.873792 0.870801 0.870801 
1.09715 1.09694 1.08937 1.08943 1.09445 1.09347 1.09224 1.09261 1.09288 1.09267 1.09247 1.09238 1.0923 1.0922 1.0921 1.09202 1.09195 1.09188 1.09182 1.09177 1.09171 1.09167 1.09162 1.09158 1.09154 1.0915 1.09146 1.09143 1.09138 1.09136 1.09131 1.09129 1.09125 1.09123 1.09119 1.09117 1.09113 1.09112 1.09108 1.09106 1.09103 1.09101 1.09098 1.09097 1.09093 1.09092 1.09089 1.09087 1.09084 1.09083 1.0908 1.09079 1.09076 1.09075 1.09072 1.09071 1.09069 1.09067 1.09065 1.09063 1.09061 1.09059 1.09057 1.09056 1.09054 1.09052 1.0905 1.09048 1.09047 1.09045 1.09043 1.09041 1.09039 1.09038 1.09036 1.09034 1.09032 1.0903 1.09029 1.09027 1.09025 1.09023 1.09021 1.09019 1.09018 1.09016 1.09014 1.09012 1.0901 1.09008 1.09006 1.09003 1.09001 1.08998 1.08995 1.08991 1.08986 1.08979 1.08971 1.08961 1.08947 1.0893 1.08909 1.08883 1.0885 1.08811 1.08765 1.08711 1.0865 1.08581 1.08505 1.08421 1.08332 1.08237 1.08137 1.08034 1.07929 1.07823 1.07716 1.0761 1.07505 1.07402 1.07301 1.07203 1.07108 1.07015 1.06925 1.06838 1.06753 1.06671 1.0659 1.06511 1.06433 1.06357 1.06282 1.06207 1.06134 1.0606 1.05985 1.05907 1.05824 1.05732 1.05626 1.05499 1.05341 1.05143 1.04891 1.04575 1.04182 1.03704 1.03137 1.02484 1.01759 1.00987 1.00202 0.994451 0.987503 0.981428 0.97634 0.97223 0.968998 0.966504 0.964593 0.963125 0.96198 0.961064 0.960305 0.959653 0.95907 0.958532 0.958023 0.95753 0.957049 0.956573 0.956101 0.95563 0.955161 0.954691 0.954221 0.95375 0.953279 0.952807 0.952334 0.951859 0.951383 0.950906 0.950427 0.949947 0.949465 0.94898 0.948494 0.948005 0.947515 0.947021 0.946525 0.946026 0.945524 0.945019 0.94451 0.943998 0.943482 0.942962 0.942437 0.941908 0.941375 0.940836 0.940292 0.939742 0.939186 0.938624 0.938055 0.937479 0.936896 0.936304 0.935704 0.935095 0.934476 0.933846 0.933206 0.932554 0.931889 0.93121 0.930517 0.929808 0.929082 0.928338 0.927574 0.926789 0.92598 0.925146 0.924284 0.923391 0.922464 0.9215 0.920495 0.919444 0.918342 0.917182 0.915958 0.914659 0.913277 0.911798 0.910209 0.908493 0.906624 0.904569 0.902323 0.899881 0.897058 0.893769 0.890674 0.887506 0.882492 0.878529 0.876828 0.876828 
1.09906 1.09222 1.09025 1.09487 1.09337 1.09165 1.09261 1.09301 1.09265 1.09245 1.09243 1.09236 1.09224 1.09215 1.09207 1.09199 1.09192 1.09186 1.0918 1.09175 1.0917 1.09166 1.09161 1.09157 1.09152 1.09149 1.09144 1.09142 1.09137 1.09135 1.0913 1.09128 1.09124 1.09122 1.09118 1.09116 1.09112 1.09111 1.09107 1.09106 1.09102 1.09101 1.09097 1.09096 1.09092 1.09091 1.09088 1.09087 1.09083 1.09082 1.09079 1.09078 1.09075 1.09074 1.09071 1.0907 1.09067 1.09066 1.09064 1.09062 1.0906 1.09058 1.09056 1.09055 1.09052 1.09051 1.09049 1.09047 1.09045 1.09044 1.09042 1.0904 1.09038 1.09036 1.09034 1.09033 1.09031 1.09029 1.09027 1.09025 1.09023 1.09022 1.0902 1.09018 1.09016 1.09014 1.09012 1.0901 1.09008 1.09006 1.09004 1.09001 1.08999 1.08996 1.08992 1.08988 1.08983 1.08977 1.08968 1.08958 1.08944 1.08927 1.08905 1.08878 1.08845 1.08806 1.08759 1.08705 1.08643 1.08574 1.08497 1.08413 1.08324 1.08228 1.08129 1.08026 1.07921 1.07815 1.07708 1.07602 1.07498 1.07395 1.07294 1.07196 1.07101 1.07009 1.06919 1.06831 1.06746 1.06663 1.06582 1.06502 1.06424 1.06347 1.06271 1.06196 1.0612 1.06044 1.05967 1.05886 1.058 1.05703 1.05593 1.05461 1.05299 1.05099 1.04849 1.04539 1.04158 1.03698 1.03154 1.02526 1.01825 1.01072 1.00299 0.995444 0.988438 0.982249 0.977019 0.972764 0.969402 0.966798 0.964802 0.96327 0.962078 0.96113 0.960349 0.959682 0.959089 0.958545 0.958032 0.957537 0.957054 0.956578 0.956105 0.955634 0.955164 0.954694 0.954224 0.953753 0.953282 0.952809 0.952336 0.951861 0.951385 0.950908 0.950429 0.949949 0.949466 0.948982 0.948495 0.948007 0.947516 0.947022 0.946526 0.946027 0.945525 0.94502 0.944511 0.943999 0.943483 0.942963 0.942438 0.941909 0.941376 0.940837 0.940293 0.939743 0.939188 0.938626 0.938057 0.937482 0.936898 0.936307 0.935707 0.935099 0.93448 0.933852 0.933212 0.932561 0.931897 0.93122 0.930528 0.929821 0.929097 0.928355 0.927594 0.926811 0.926006 0.925176 0.924318 0.923431 0.922511 0.921556 0.92056 0.919521 0.918432 0.917289 0.916085 0.914812 0.913462 0.912024 0.910485 0.908831 0.907053 0.905125 0.903 0.900711 0.898314 0.895537 0.892293 0.889507 0.886844 0.883872 0.881858 0.881858 
1.09028 1.09275 1.09421 1.09304 1.09172 1.09279 1.093 1.09249 1.09241 1.09248 1.0924 1.09227 1.09218 1.09211 1.09203 1.09196 1.09189 1.09183 1.09177 1.09173 1.09168 1.09164 1.09159 1.09155 1.09151 1.09148 1.09143 1.09141 1.09136 1.09134 1.09129 1.09127 1.09123 1.09121 1.09117 1.09115 1.09111 1.0911 1.09106 1.09105 1.091 1.091 1.09096 1.09095 1.09091 1.0909 1.09086 1.09086 1.09082 1.09081 1.09078 1.09077 1.09074 1.09073 1.0907 1.09069 1.09066 1.09065 1.09062 1.09061 1.09059 1.09057 1.09055 1.09053 1.09051 1.0905 1.09048 1.09046 1.09044 1.09042 1.0904 1.09039 1.09037 1.09035 1.09033 1.09031 1.09029 1.09027 1.09026 1.09024 1.09022 1.0902 1.09018 1.09016 1.09014 1.09012 1.0901 1.09008 1.09006 1.09004 1.09002 1.08999 1.08997 1.08994 1.0899 1.08986 1.08981 1.08974 1.08966 1.08955 1.08941 1.08923 1.08901 1.08874 1.08841 1.08801 1.08754 1.08699 1.08637 1.08567 1.0849 1.08406 1.08316 1.08221 1.08121 1.08019 1.07914 1.07808 1.07701 1.07596 1.07491 1.07389 1.07288 1.0719 1.07095 1.07003 1.06913 1.06825 1.0674 1.06656 1.06575 1.06495 1.06416 1.06338 1.06261 1.06184 1.06107 1.06029 1.05949 1.05865 1.05775 1.05675 1.0556 1.05424 1.05259 1.05058 1.0481 1.04506 1.04138 1.03695 1.03172 1.02569 1.0189 1.01155 1.00393 0.996408 0.989348 0.98305 0.977684 0.973289 0.9698 0.96709 0.96501 0.963415 0.962178 0.961197 0.960395 0.959713 0.959112 0.958562 0.958044 0.957548 0.957063 0.956586 0.956112 0.955641 0.955171 0.954701 0.95423 0.95376 0.953288 0.952816 0.952342 0.951867 0.951391 0.950914 0.950435 0.949955 0.949472 0.948988 0.948501 0.948013 0.947522 0.947028 0.946532 0.946033 0.945531 0.945026 0.944517 0.944005 0.943489 0.942969 0.942445 0.941916 0.941383 0.940845 0.940301 0.939752 0.939197 0.938635 0.938067 0.937492 0.93691 0.936319 0.93572 0.935112 0.934495 0.933868 0.93323 0.93258 0.931918 0.931243 0.930553 0.929849 0.929128 0.928389 0.927632 0.926854 0.926054 0.925229 0.924379 0.9235 0.922589 0.921644 0.920661 0.919637 0.918567 0.917445 0.916267 0.915026 0.913714 0.912323 0.910845 0.909266 0.907575 0.905773 0.903837 0.901712 0.899479 0.897241 0.894701 0.892012 0.889696 0.887452 0.885598 0.885598 
1.09266 1.09294 1.09286 1.09217 1.09276 1.09292 1.09239 1.09239 1.09251 1.0924 1.09227 1.0922 1.09214 1.09206 1.09198 1.09192 1.09186 1.0918 1.09175 1.0917 1.09165 1.09162 1.09157 1.09154 1.09149 1.09146 1.09142 1.09139 1.09135 1.09132 1.09128 1.09126 1.09121 1.0912 1.09115 1.09114 1.0911 1.09109 1.09104 1.09104 1.09099 1.09099 1.09094 1.09094 1.0909 1.09089 1.09085 1.09085 1.09081 1.0908 1.09077 1.09076 1.09073 1.09072 1.09069 1.09068 1.09065 1.09064 1.09061 1.0906 1.09057 1.09056 1.09054 1.09052 1.0905 1.09048 1.09046 1.09045 1.09043 1.09041 1.09039 1.09037 1.09035 1.09033 1.09032 1.0903 1.09028 1.09026 1.09024 1.09022 1.0902 1.09018 1.09016 1.09014 1.09012 1.0901 1.09008 1.09006 1.09004 1.09002 1.09 1.08997 1.08995 1.08992 1.08988 1.08984 1.08978 1.08972 1.08963 1.08952 1.08938 1.0892 1.08898 1.0887 1.08837 1.08796 1.08749 1.08694 1.08631 1.08561 1.08484 1.084 1.0831 1.08214 1.08115 1.08012 1.07907 1.07802 1.07695 1.0759 1.07486 1.07383 1.07283 1.07185 1.0709 1.06997 1.06907 1.06819 1.06734 1.0665 1.06568 1.06487 1.06407 1.06329 1.0625 1.06172 1.06094 1.06014 1.05931 1.05845 1.05751 1.05647 1.05528 1.05389 1.05222 1.0502 1.04775 1.04478 1.04121 1.03695 1.03192 1.02611 1.01954 1.01236 1.00485 0.997345 0.990235 0.983833 0.978336 0.973805 0.970192 0.967378 0.965216 0.963559 0.962278 0.961267 0.960443 0.959748 0.959137 0.958581 0.95806 0.957561 0.957075 0.956597 0.956123 0.955651 0.955181 0.954711 0.95424 0.95377 0.953298 0.952826 0.952352 0.951877 0.951401 0.950924 0.950445 0.949964 0.949482 0.948998 0.948511 0.948023 0.947532 0.947039 0.946543 0.946044 0.945542 0.945037 0.944528 0.944016 0.943501 0.942981 0.942457 0.941929 0.941396 0.940858 0.940315 0.939766 0.939212 0.938651 0.938084 0.93751 0.936928 0.936339 0.935741 0.935135 0.934519 0.933894 0.933257 0.93261 0.93195 0.931278 0.930591 0.92989 0.929173 0.928439 0.927686 0.926914 0.92612 0.925303 0.924461 0.923591 0.922692 0.92176 0.920792 0.919786 0.918736 0.917639 0.916491 0.915285 0.914016 0.912676 0.911261 0.909762 0.908167 0.906471 0.90469 0.9028 0.900747 0.898655 0.896593 0.894412 0.892302 0.890398 0.888745 0.888745 
1.09324 1.09255 1.09235 1.09261 1.09276 1.09237 1.09238 1.0925 1.09236 1.09225 1.09222 1.09216 1.09208 1.09201 1.09194 1.09188 1.09182 1.09177 1.09172 1.09168 1.09163 1.09159 1.09155 1.09152 1.09147 1.09144 1.0914 1.09138 1.09133 1.09131 1.09126 1.09125 1.0912 1.09119 1.09114 1.09113 1.09109 1.09108 1.09103 1.09103 1.09098 1.09098 1.09093 1.09093 1.09089 1.09088 1.09084 1.09084 1.0908 1.09079 1.09076 1.09075 1.09072 1.09071 1.09068 1.09067 1.09064 1.09063 1.0906 1.09059 1.09056 1.09055 1.09052 1.09051 1.09049 1.09047 1.09045 1.09043 1.09041 1.0904 1.09038 1.09036 1.09034 1.09032 1.0903 1.09028 1.09026 1.09024 1.09022 1.09021 1.09019 1.09017 1.09015 1.09013 1.09011 1.09009 1.09007 1.09005 1.09002 1.09 1.08998 1.08995 1.08993 1.08989 1.08986 1.08981 1.08976 1.08969 1.0896 1.08949 1.08935 1.08917 1.08894 1.08867 1.08833 1.08792 1.08744 1.08689 1.08626 1.08556 1.08478 1.08394 1.08304 1.08208 1.08109 1.08007 1.07902 1.07796 1.0769 1.07585 1.07481 1.07378 1.07278 1.07181 1.07085 1.06992 1.06902 1.06814 1.06728 1.06644 1.06561 1.0648 1.06399 1.0632 1.0624 1.06161 1.06081 1.05999 1.05914 1.05824 1.05728 1.0562 1.05498 1.05355 1.05187 1.04985 1.04744 1.04454 1.04108 1.03697 1.03214 1.02653 1.02016 1.01315 1.00573 0.998257 0.991101 0.9846 0.978975 0.974312 0.970578 0.967662 0.96542 0.963704 0.962379 0.961337 0.960493 0.959784 0.959165 0.958603 0.958079 0.957578 0.95709 0.956611 0.956137 0.955665 0.955195 0.954724 0.954254 0.953783 0.953311 0.952839 0.952365 0.951891 0.951415 0.950937 0.950459 0.949978 0.949496 0.949012 0.948525 0.948037 0.947546 0.947053 0.946557 0.946058 0.945557 0.945052 0.944544 0.944032 0.943517 0.942998 0.942475 0.941947 0.941414 0.940877 0.940335 0.939787 0.939233 0.938674 0.938107 0.937534 0.936954 0.936366 0.93577 0.935165 0.934551 0.933928 0.933294 0.932649 0.931992 0.931323 0.93064 0.929943 0.92923 0.928501 0.927755 0.926989 0.926202 0.925394 0.924561 0.923702 0.922815 0.921898 0.920947 0.91996 0.918933 0.917863 0.916745 0.915577 0.914352 0.913066 0.911713 0.91029 0.908794 0.907212 0.905546 0.903827 0.902031 0.900137 0.898257 0.896405 0.894565 0.892852 0.891356 0.891356 
1.09231 1.09247 1.09253 1.09254 1.09237 1.09235 1.09244 1.09232 1.09223 1.09221 1.09216 1.09208 1.09202 1.09196 1.0919 1.09184 1.09179 1.09174 1.09169 1.09165 1.09161 1.09157 1.09153 1.0915 1.09145 1.09143 1.09138 1.09136 1.09131 1.09129 1.09125 1.09123 1.09119 1.09118 1.09113 1.09112 1.09107 1.09107 1.09102 1.09102 1.09097 1.09097 1.09092 1.09092 1.09087 1.09087 1.09083 1.09083 1.09078 1.09078 1.09074 1.09074 1.0907 1.0907 1.09066 1.09066 1.09062 1.09062 1.09059 1.09057 1.09055 1.09054 1.09051 1.0905 1.09047 1.09046 1.09044 1.09042 1.0904 1.09038 1.09036 1.09034 1.09032 1.09031 1.09029 1.09027 1.09025 1.09023 1.09021 1.09019 1.09017 1.09015 1.09013 1.09011 1.09009 1.09007 1.09005 1.09003 1.09 1.08998 1.08996 1.08993 1.0899 1.08987 1.08984 1.08979 1.08974 1.08967 1.08958 1.08947 1.08932 1.08914 1.08891 1.08863 1.08829 1.08788 1.0874 1.08685 1.08621 1.08551 1.08473 1.08389 1.08299 1.08203 1.08104 1.08002 1.07897 1.07792 1.07686 1.07581 1.07477 1.07374 1.07274 1.07176 1.07081 1.06988 1.06897 1.06809 1.06723 1.06638 1.06555 1.06473 1.06392 1.06311 1.0623 1.0615 1.06068 1.05984 1.05897 1.05805 1.05705 1.05594 1.05469 1.05324 1.05154 1.04954 1.04716 1.04433 1.04098 1.03702 1.03237 1.02696 1.02078 1.01392 1.0066 0.999146 0.991947 0.985351 0.979603 0.974811 0.970958 0.967943 0.965623 0.963847 0.962481 0.961409 0.960545 0.959823 0.959195 0.958628 0.958101 0.957597 0.957109 0.956629 0.956154 0.955682 0.955211 0.954741 0.954271 0.9538 0.953328 0.952856 0.952382 0.951908 0.951432 0.950954 0.950476 0.949995 0.949513 0.949029 0.948543 0.948055 0.947564 0.947071 0.946576 0.946077 0.945576 0.945072 0.944564 0.944053 0.943538 0.943019 0.942496 0.941969 0.941438 0.940901 0.94036 0.939813 0.93926 0.938701 0.938136 0.937565 0.936986 0.936399 0.935805 0.935202 0.934591 0.93397 0.933338 0.932696 0.932043 0.931377 0.930698 0.930006 0.929298 0.928575 0.927834 0.927076 0.926297 0.925498 0.924675 0.923828 0.922955 0.922053 0.92112 0.920153 0.91915 0.918107 0.917022 0.915891 0.91471 0.913477 0.912187 0.910835 0.909424 0.907953 0.906412 0.904811 0.903181 0.901508 0.899805 0.898141 0.896522 0.894974 0.893592 0.893592 
1.09234 1.09241 1.09239 1.09234 1.09231 1.09235 1.09228 1.0922 1.0922 1.09215 1.09207 1.09202 1.09197 1.09191 1.09186 1.0918 1.09175 1.09171 1.09166 1.09162 1.09158 1.09155 1.0915 1.09147 1.09143 1.09141 1.09136 1.09134 1.0913 1.09128 1.09123 1.09122 1.09117 1.09116 1.09111 1.09111 1.09106 1.09105 1.091 1.091 1.09095 1.09095 1.09091 1.09091 1.09086 1.09086 1.09081 1.09082 1.09077 1.09077 1.09073 1.09073 1.09069 1.09069 1.09065 1.09064 1.09061 1.0906 1.09057 1.09056 1.09054 1.09052 1.0905 1.09048 1.09046 1.09044 1.09042 1.09041 1.09038 1.09037 1.09035 1.09033 1.09031 1.09029 1.09027 1.09025 1.09023 1.09021 1.09019 1.09017 1.09015 1.09013 1.09011 1.09009 1.09007 1.09005 1.09003 1.09001 1.08999 1.08996 1.08994 1.08991 1.08988 1.08985 1.08981 1.08977 1.08971 1.08964 1.08955 1.08944 1.0893 1.08911 1.08888 1.0886 1.08826 1.08785 1.08736 1.08681 1.08617 1.08547 1.08469 1.08384 1.08294 1.08199 1.081 1.07997 1.07893 1.07788 1.07682 1.07577 1.07473 1.07371 1.07271 1.07173 1.07077 1.06984 1.06893 1.06805 1.06718 1.06632 1.06549 1.06466 1.06384 1.06302 1.06221 1.06139 1.06055 1.0597 1.0588 1.05786 1.05683 1.0557 1.05442 1.05295 1.05125 1.04925 1.04691 1.04415 1.0409 1.03709 1.03261 1.02738 1.02138 1.01467 1.00744 1.00001 0.992774 0.986086 0.98022 0.975303 0.971334 0.968221 0.965824 0.963991 0.962583 0.961483 0.9606 0.959864 0.959228 0.958656 0.958125 0.95762 0.95713 0.95665 0.956175 0.955702 0.955231 0.954761 0.954291 0.95382 0.953348 0.952876 0.952402 0.951928 0.951452 0.950975 0.950496 0.950016 0.949534 0.94905 0.948564 0.948076 0.947586 0.947093 0.946598 0.9461 0.945599 0.945095 0.944588 0.944077 0.943563 0.943045 0.942522 0.941996 0.941465 0.94093 0.940389 0.939843 0.939291 0.938734 0.93817 0.9376 0.937023 0.936439 0.935846 0.935246 0.934636 0.934018 0.933389 0.932751 0.932101 0.931439 0.930765 0.930077 0.929375 0.928657 0.927924 0.927173 0.926403 0.925613 0.924802 0.923967 0.923108 0.922221 0.921307 0.920361 0.919382 0.918367 0.917314 0.91622 0.915083 0.913899 0.912669 0.911387 0.910054 0.908673 0.907247 0.905771 0.904262 0.902742 0.90121 0.899691 0.898221 0.896809 0.895527 0.895527 
1.09233 1.09227 1.09225 1.09226 1.09226 1.09222 1.09217 1.09216 1.09212 1.09206 1.09201 1.09197 1.09191 1.09186 1.09181 1.09177 1.09172 1.09168 1.09163 1.0916 1.09155 1.09152 1.09148 1.09145 1.09141 1.09139 1.09134 1.09132 1.09128 1.09126 1.09122 1.0912 1.09116 1.09115 1.0911 1.09109 1.09104 1.09104 1.09099 1.09099 1.09094 1.09094 1.09089 1.09089 1.09085 1.09085 1.0908 1.0908 1.09076 1.09076 1.09072 1.09072 1.09068 1.09067 1.09064 1.09063 1.0906 1.09059 1.09056 1.09055 1.09052 1.09051 1.09048 1.09047 1.09045 1.09043 1.09041 1.09039 1.09037 1.09035 1.09033 1.09031 1.09029 1.09028 1.09026 1.09024 1.09022 1.0902 1.09018 1.09016 1.09014 1.09012 1.0901 1.09008 1.09005 1.09003 1.09001 1.08999 1.08997 1.08994 1.08992 1.08989 1.08986 1.08983 1.08979 1.08975 1.08969 1.08962 1.08953 1.08942 1.08927 1.08908 1.08885 1.08857 1.08822 1.08781 1.08733 1.08677 1.08614 1.08543 1.08465 1.0838 1.0829 1.08195 1.08096 1.07994 1.0789 1.07784 1.07679 1.07574 1.0747 1.07368 1.07268 1.0717 1.07074 1.06981 1.06889 1.068 1.06713 1.06627 1.06543 1.0646 1.06377 1.06294 1.06212 1.06128 1.06043 1.05956 1.05864 1.05767 1.05662 1.05546 1.05416 1.05268 1.05097 1.04899 1.04669 1.044 1.04086 1.03717 1.03285 1.0278 1.02197 1.0154 1.00826 1.00086 0.993583 0.986808 0.980826 0.975787 0.971705 0.968497 0.966024 0.964134 0.962686 0.961558 0.960656 0.959908 0.959264 0.958687 0.958153 0.957645 0.957155 0.956674 0.956198 0.955726 0.955255 0.954784 0.954314 0.953843 0.953371 0.952899 0.952425 0.951951 0.951475 0.950998 0.95052 0.95004 0.949558 0.949074 0.948589 0.948101 0.947611 0.947118 0.946624 0.946126 0.945625 0.945122 0.944615 0.944105 0.943591 0.943074 0.942553 0.942027 0.941497 0.940962 0.940423 0.939878 0.939328 0.938772 0.938209 0.937641 0.937065 0.936483 0.935893 0.935294 0.934688 0.934072 0.933447 0.932811 0.932165 0.931508 0.930838 0.930155 0.929459 0.928748 0.928022 0.927278 0.926518 0.925738 0.924937 0.924116 0.92327 0.922401 0.921504 0.920579 0.919624 0.918637 0.917616 0.916558 0.915462 0.914327 0.91315 0.911933 0.910674 0.909373 0.908038 0.906672 0.905278 0.903873 0.902471 0.901082 0.899727 0.898423 0.897223 0.897223 
1.09217 1.09218 1.09218 1.09217 1.09215 1.09212 1.09211 1.09208 1.09203 1.092 1.09196 1.09191 1.09186 1.09182 1.09177 1.09173 1.09168 1.09164 1.0916 1.09157 1.09153 1.09149 1.09146 1.09143 1.09139 1.09136 1.09132 1.0913 1.09126 1.09124 1.0912 1.09118 1.09114 1.09113 1.09108 1.09108 1.09103 1.09103 1.09098 1.09098 1.09093 1.09093 1.09088 1.09088 1.09083 1.09084 1.09079 1.09079 1.09075 1.09075 1.0907 1.0907 1.09066 1.09066 1.09062 1.09062 1.09059 1.09058 1.09055 1.09054 1.09051 1.0905 1.09047 1.09046 1.09043 1.09042 1.09039 1.09038 1.09036 1.09034 1.09032 1.0903 1.09028 1.09026 1.09024 1.09022 1.0902 1.09018 1.09016 1.09014 1.09012 1.0901 1.09008 1.09006 1.09004 1.09001 1.08999 1.08997 1.08995 1.08992 1.0899 1.08987 1.08984 1.08981 1.08977 1.08972 1.08967 1.0896 1.08951 1.08939 1.08924 1.08906 1.08883 1.08854 1.0882 1.08778 1.0873 1.08674 1.0861 1.0854 1.08462 1.08377 1.08287 1.08192 1.08093 1.07991 1.07887 1.07782 1.07676 1.07571 1.07468 1.07365 1.07265 1.07167 1.07071 1.06978 1.06886 1.06797 1.06709 1.06623 1.06538 1.06454 1.0637 1.06287 1.06203 1.06118 1.06031 1.05942 1.05849 1.0575 1.05642 1.05524 1.05392 1.05243 1.05072 1.04876 1.0465 1.04388 1.04083 1.03728 1.03311 1.02822 1.02255 1.01612 1.00906 1.00169 0.994376 0.987517 0.981423 0.976264 0.972071 0.968769 0.966222 0.964278 0.96279 0.961634 0.960713 0.959954 0.959302 0.95872 0.958183 0.957674 0.957182 0.9567 0.956225 0.955752 0.955281 0.95481 0.95434 0.953869 0.953397 0.952925 0.952452 0.951978 0.951502 0.951025 0.950547 0.950067 0.949585 0.949102 0.948616 0.948129 0.947639 0.947147 0.946653 0.946155 0.945655 0.945152 0.944646 0.944137 0.943624 0.943107 0.942587 0.942062 0.941533 0.940999 0.940461 0.939917 0.939368 0.938813 0.938253 0.937686 0.937113 0.936532 0.935944 0.935348 0.934744 0.934132 0.93351 0.932878 0.932236 0.931582 0.930918 0.93024 0.92955 0.928846 0.928126 0.927391 0.92664 0.92587 0.925081 0.924272 0.923441 0.922588 0.92171 0.920806 0.919874 0.918914 0.917923 0.9169 0.915844 0.914753 0.913628 0.912468 0.911274 0.910048 0.908793 0.907515 0.90622 0.904915 0.903615 0.902329 0.901071 0.899856 0.898725 0.898725 
1.09209 1.09209 1.09209 1.09208 1.09207 1.09205 1.09203 1.092 1.09197 1.09193 1.09189 1.09185 1.09181 1.09177 1.09173 1.09169 1.09165 1.09161 1.09157 1.09154 1.0915 1.09147 1.09143 1.0914 1.09136 1.09134 1.0913 1.09128 1.09124 1.09122 1.09118 1.09117 1.09112 1.09111 1.09107 1.09106 1.09101 1.09101 1.09096 1.09096 1.09091 1.09091 1.09086 1.09087 1.09082 1.09082 1.09077 1.09078 1.09073 1.09073 1.09069 1.09069 1.09065 1.09065 1.09061 1.09061 1.09057 1.09056 1.09053 1.09052 1.09049 1.09048 1.09046 1.09044 1.09042 1.0904 1.09038 1.09036 1.09034 1.09032 1.0903 1.09029 1.09026 1.09025 1.09022 1.09021 1.09018 1.09016 1.09014 1.09012 1.0901 1.09008 1.09006 1.09004 1.09002 1.09 1.08997 1.08995 1.08993 1.0899 1.08988 1.08985 1.08982 1.08979 1.08975 1.0897 1.08964 1.08957 1.08948 1.08937 1.08922 1.08903 1.0888 1.08852 1.08817 1.08776 1.08727 1.08671 1.08608 1.08537 1.08459 1.08375 1.08285 1.0819 1.08091 1.07989 1.07885 1.0778 1.07674 1.0757 1.07466 1.07364 1.07263 1.07165 1.07069 1.06975 1.06883 1.06794 1.06705 1.06619 1.06533 1.06448 1.06364 1.06279 1.06194 1.06108 1.0602 1.05929 1.05834 1.05733 1.05623 1.05503 1.0537 1.0522 1.05049 1.04855 1.04633 1.04378 1.04083 1.03739 1.03337 1.02864 1.02312 1.01682 1.00985 1.0025 0.995153 0.988214 0.98201 0.976735 0.972433 0.969039 0.96642 0.964421 0.962894 0.961712 0.960773 0.960002 0.959342 0.958756 0.958216 0.957705 0.957213 0.95673 0.956254 0.955781 0.95531 0.95484 0.954369 0.953898 0.953427 0.952955 0.952481 0.952007 0.951532 0.951055 0.950577 0.950097 0.949616 0.949133 0.948648 0.94816 0.947671 0.947179 0.946685 0.946189 0.945689 0.945187 0.944681 0.944172 0.94366 0.943144 0.942624 0.9421 0.941572 0.94104 0.940502 0.93996 0.939413 0.93886 0.938301 0.937736 0.937164 0.936586 0.936 0.935407 0.934806 0.934196 0.933578 0.93295 0.932311 0.931663 0.931003 0.930331 0.929647 0.928949 0.928238 0.927511 0.926768 0.926009 0.925231 0.924435 0.923619 0.922781 0.921921 0.921038 0.920129 0.919195 0.918233 0.917243 0.916223 0.915175 0.914097 0.912989 0.911854 0.910693 0.909509 0.908307 0.907093 0.905875 0.904659 0.903458 0.902281 0.901138 0.900066 0.900066 