# vtk DataFile Version 3.0
LBM simulation at step 140
ASCII
DATASET STRUCTURED_POINTS
DIMENSIONS 128 128 1
ORIGIN 0 0 0
SPACING 1 1 1
POINT_DATA 16384
SCALARS density float
LOOKUP_TABLE default
0.954032 1.01945 1.02119 1.01789 1.01812 1.01832 1.01819 1.0181 1.01806 1.01803 1.018 1.01798 1.01797 1.01796 1.01796 1.01796 1.01798 1.018 1.01803 1.01807 1.01812 1.01818 1.01825 1.01833 1.01841 1.01851 1.01861 1.01871 1.01882 1.01893 1.01904 1.01915 1.01925 1.01935 1.01944 1.01952 1.01959 1.01965 1.01969 1.01971 1.01971 1.01968 1.01963 1.01953 1.0194 1.01921 1.01896 1.01865 1.01828 1.01784 1.01733 1.01678 1.01618 1.01554 1.01489 1.01422 1.01355 1.01289 1.01225 1.01162 1.01101 1.01042 1.00985 1.0093 1.00876 1.00823 1.0077 1.00716 1.00661 1.00602 1.00538 1.00467 1.00388 1.00296 1.0019 1.00069 0.999304 0.997767 0.99611 0.994384 0.992653 0.990986 0.989442 0.988064 0.986872 0.985868 0.985037 0.984352 0.983784 0.983305 0.982887 0.982512 0.982163 0.98183 0.981507 0.981187 0.980869 0.980551 0.980232 0.979911 0.979587 0.979261 0.978932 0.9786 0.978264 0.977924 0.977579 0.97723 0.976875 0.976513 0.976144 0.975768 0.975383 0.974987 0.974581 0.974161 0.973725 0.973272 0.972796 0.972296 0.971749 0.971136 0.970498 0.97016 0.968315 0.967014 0.984433 0.984433 
1.02202 1.02008 1.01627 1.01754 1.01839 1.01832 1.01818 1.01811 1.01807 1.01803 1.01801 1.01799 1.01798 1.01797 1.01797 1.01798 1.018 1.01802 1.01806 1.0181 1.01816 1.01822 1.0183 1.01838 1.01847 1.01857 1.01867 1.01878 1.01889 1.019 1.01911 1.01922 1.01933 1.01942 1.01951 1.01959 1.01966 1.01972 1.01976 1.01978 1.01977 1.01974 1.01968 1.01958 1.01944 1.01924 1.01899 1.01867 1.01829 1.01784 1.01734 1.01678 1.01618 1.01554 1.01489 1.01422 1.01356 1.0129 1.01225 1.01162 1.01101 1.01042 1.00984 1.00929 1.00874 1.0082 1.00766 1.00711 1.00655 1.00595 1.0053 1.00459 1.00379 1.00289 1.00185 1.00066 0.999314 0.997823 0.996211 0.994524 0.992821 0.991166 0.989619 0.988224 0.987008 0.985976 0.985116 0.984406 0.983818 0.983322 0.982892 0.982509 0.982154 0.981818 0.981491 0.98117 0.980851 0.980531 0.980211 0.979889 0.979564 0.979237 0.978907 0.978573 0.978235 0.977893 0.977546 0.977194 0.976836 0.976471 0.976099 0.975719 0.975329 0.974928 0.974515 0.974087 0.973642 0.973176 0.972686 0.972172 0.971621 0.970972 0.97014 0.969518 0.970195 0.97132 0.969425 0.969425 
1.02944 1.01697 1.01634 1.01886 1.01848 1.01807 1.0181 1.01813 1.01809 1.01804 1.01802 1.01801 1.018 1.018 1.01801 1.01803 1.01805 1.01809 1.01814 1.0182 1.01826 1.01834 1.01843 1.01853 1.01863 1.01874 1.01886 1.01898 1.0191 1.01922 1.01934 1.01945 1.01956 1.01966 1.01975 1.01984 1.0199 1.01996 1.01999 1.02001 1.02001 1.01997 1.01991 1.0198 1.01965 1.01945 1.01918 1.01886 1.01846 1.01801 1.01749 1.01693 1.01632 1.01568 1.01501 1.01434 1.01367 1.013 1.01235 1.01171 1.01109 1.01048 1.00989 1.00932 1.00876 1.0082 1.00765 1.00709 1.00651 1.0059 1.00525 1.00454 1.00375 1.00285 1.00184 1.00068 0.999375 0.99792 0.99634 0.994677 0.992987 0.991333 0.989775 0.988361 0.987122 0.986065 0.985181 0.984451 0.983845 0.983336 0.982898 0.982507 0.982149 0.981809 0.981481 0.981158 0.980837 0.980517 0.980195 0.979872 0.979547 0.979218 0.978887 0.978552 0.978212 0.977869 0.97752 0.977166 0.976806 0.976439 0.976064 0.975681 0.975287 0.974882 0.974464 0.97403 0.973578 0.973107 0.972609 0.972065 0.971483 0.97092 0.970359 0.969556 0.969054 0.967228 0.960702 0.960702 
1.01426 1.01861 1.02063 1.0183 1.01766 1.01817 1.01825 1.01812 1.01806 1.01805 1.01804 1.01803 1.01804 1.01805 1.01807 1.0181 1.01815 1.01821 1.01827 1.01835 1.01844 1.01855 1.01866 1.01878 1.0189 1.01903 1.01917 1.01931 1.01944 1.01957 1.0197 1.01983 1.01994 1.02004 1.02014 1.02022 1.02029 1.02034 1.02037 1.02039 1.02038 1.02034 1.02027 1.02015 1.02 1.01978 1.01951 1.01918 1.01877 1.01831 1.01778 1.0172 1.01658 1.01593 1.01526 1.01457 1.01389 1.01321 1.01253 1.01188 1.01124 1.01061 1.01 1.00941 1.00882 1.00825 1.00767 1.0071 1.0065 1.00588 1.00522 1.00451 1.00373 1.00285 1.00185 1.00072 0.999444 0.99802 0.996467 0.994824 0.993144 0.991489 0.989921 0.988491 0.987229 0.986149 0.985244 0.984495 0.983874 0.983353 0.982906 0.98251 0.982147 0.981805 0.981474 0.98115 0.980828 0.980507 0.980185 0.979861 0.979535 0.979206 0.978873 0.978537 0.978197 0.977852 0.977502 0.977147 0.976785 0.976417 0.97604 0.975654 0.975258 0.974851 0.97443 0.973994 0.973538 0.973059 0.972559 0.972034 0.971454 0.970797 0.970202 0.969607 0.968609 0.966623 0.962495 0.962495 
1.01848 1.01916 1.01826 1.01783 1.0184 1.01831 1.01808 1.01807 1.0181 1.01808 1.01807 1.01808 1.0181 1.01813 1.01817 1.01822 1.01829 1.01838 1.01847 1.01858 1.0187 1.01884 1.01898 1.01913 1.01928 1.01944 1.01959 1.01975 1.0199 1.02004 1.02018 1.02031 1.02043 1.02054 1.02063 1.02071 1.02078 1.02082 1.02085 1.02086 1.02085 1.0208 1.02072 1.0206 1.02044 1.02022 1.01994 1.01959 1.01918 1.0187 1.01817 1.01758 1.01695 1.01628 1.0156 1.0149 1.0142 1.0135 1.01281 1.01213 1.01146 1.01081 1.01018 1.00956 1.00895 1.00835 1.00775 1.00715 1.00653 1.0059 1.00523 1.00451 1.00373 1.00286 1.00188 1.00077 0.999515 0.998119 0.996591 0.994967 0.993297 0.991642 0.990065 0.988618 0.987337 0.986235 0.985309 0.984541 0.983906 0.983374 0.982918 0.982516 0.982149 0.981804 0.981472 0.981147 0.980825 0.980503 0.98018 0.979855 0.979528 0.979198 0.978865 0.978529 0.978188 0.977842 0.977492 0.977136 0.976773 0.976404 0.976026 0.97564 0.975243 0.974835 0.974413 0.973976 0.973521 0.973045 0.972539 0.972006 0.971455 0.970857 0.970187 0.969386 0.968027 0.966856 0.965923 0.965923 
1.0194 1.01832 1.01789 1.01852 1.01839 1.01805 1.0181 1.01815 1.01812 1.0181 1.01812 1.01815 1.01819 1.01824 1.01831 1.0184 1.0185 1.01862 1.01875 1.01889 1.01905 1.01922 1.01939 1.01957 1.01975 1.01993 1.02011 1.02028 1.02045 1.0206 1.02075 1.02088 1.021 1.0211 1.02119 1.02127 1.02133 1.02137 1.02139 1.02139 1.02137 1.02131 1.02123 1.0211 1.02093 1.0207 1.02042 1.02006 1.01964 1.01916 1.01861 1.01802 1.01738 1.0167 1.016 1.01529 1.01458 1.01386 1.01315 1.01245 1.01176 1.01108 1.01042 1.00977 1.00913 1.0085 1.00787 1.00724 1.0066 1.00594 1.00526 1.00453 1.00374 1.00288 1.00191 1.00082 0.999593 0.998222 0.996718 0.995111 0.99345 0.991795 0.990208 0.988745 0.987443 0.98632 0.985374 0.984589 0.983939 0.983396 0.982933 0.982526 0.982155 0.981808 0.981475 0.981148 0.980825 0.980503 0.98018 0.979855 0.979527 0.979197 0.978864 0.978526 0.978185 0.977839 0.977489 0.977132 0.976769 0.9764 0.976022 0.975636 0.975239 0.974832 0.974411 0.973976 0.973522 0.973051 0.972557 0.97203 0.97147 0.970882 0.970211 0.969471 0.968482 0.967511 0.966994 0.966994 
1.01792 1.01823 1.01843 1.0183 1.01806 1.01815 1.0182 1.01813 1.01813 1.01816 1.0182 1.01825 1.01831 1.0184 1.01851 1.01863 1.01877 1.01893 1.0191 1.01929 1.01948 1.01969 1.01989 1.0201 1.02031 1.02051 1.0207 1.02088 1.02105 1.02121 1.02136 1.02149 1.0216 1.0217 1.02178 1.02184 1.02189 1.02192 1.02193 1.02192 1.02189 1.02183 1.02174 1.02161 1.02143 1.02119 1.0209 1.02054 1.02012 1.01963 1.01908 1.01848 1.01784 1.01715 1.01645 1.01573 1.015 1.01427 1.01354 1.01282 1.01211 1.01141 1.01071 1.01003 1.00936 1.00869 1.00803 1.00737 1.0067 1.00602 1.00532 1.00457 1.00378 1.00292 1.00196 1.00089 0.99968 0.998332 0.996849 0.995258 0.993604 0.991947 0.99035 0.988871 0.987549 0.986405 0.985439 0.984637 0.983974 0.983422 0.982951 0.982539 0.982165 0.981816 0.981481 0.981154 0.98083 0.980508 0.980184 0.979859 0.979531 0.979201 0.978867 0.97853 0.978189 0.977843 0.977492 0.977136 0.976773 0.976404 0.976027 0.975642 0.975247 0.974841 0.974423 0.973991 0.973543 0.973076 0.972588 0.972078 0.971536 0.970959 0.970298 0.969584 0.968918 0.968146 0.967449 0.967449 
1.0181 1.01821 1.01823 1.01811 1.01816 1.01821 1.01815 1.01815 1.01821 1.01825 1.01831 1.01839 1.0185 1.01862 1.01877 1.01893 1.01912 1.01932 1.01954 1.01976 1.01999 1.02023 1.02046 1.02069 1.02092 1.02113 1.02133 1.02151 1.02168 1.02183 1.02197 1.02209 1.02219 1.02227 1.02234 1.02239 1.02242 1.02244 1.02244 1.02242 1.02237 1.02231 1.02221 1.02207 1.02188 1.02165 1.02135 1.021 1.02057 1.02008 1.01954 1.01893 1.01829 1.01761 1.0169 1.01617 1.01544 1.0147 1.01396 1.01322 1.01249 1.01177 1.01105 1.01034 1.00963 1.00893 1.00824 1.00754 1.00684 1.00613 1.0054 1.00465 1.00384 1.00297 1.00202 1.00096 0.999777 0.998449 0.996985 0.995406 0.993758 0.992098 0.99049 0.988994 0.987653 0.986489 0.985504 0.984687 0.984011 0.983449 0.982971 0.982554 0.982178 0.981827 0.981491 0.981164 0.98084 0.980517 0.980193 0.979868 0.97954 0.97921 0.978876 0.978539 0.978198 0.977852 0.977502 0.977146 0.976784 0.976416 0.976041 0.975657 0.975264 0.974861 0.974446 0.974019 0.973577 0.973119 0.972641 0.972142 0.971615 0.97106 0.970474 0.969829 0.969212 0.968582 0.967917 0.967917 
1.01822 1.01812 1.0181 1.01815 1.01819 1.01816 1.01818 1.01824 1.01829 1.01836 1.01847 1.01859 1.01874 1.01891 1.0191 1.01931 1.01955 1.01979 1.02005 1.02031 1.02057 1.02083 1.02108 1.02132 1.02155 1.02176 1.02196 1.02213 1.02229 1.02243 1.02254 1.02264 1.02272 1.02279 1.02283 1.02287 1.02288 1.02288 1.02287 1.02284 1.02278 1.02271 1.0226 1.02246 1.02227 1.02204 1.02174 1.02138 1.02096 1.02048 1.01994 1.01934 1.0187 1.01802 1.01732 1.01659 1.01586 1.01512 1.01438 1.01363 1.01289 1.01215 1.01141 1.01067 1.00994 1.00921 1.00848 1.00775 1.00702 1.00628 1.00553 1.00474 1.00393 1.00306 1.00211 1.00106 0.999884 0.998573 0.997124 0.995556 0.99391 0.992246 0.990627 0.989115 0.987754 0.98657 0.985568 0.984735 0.984047 0.983476 0.982993 0.982572 0.982193 0.981841 0.981505 0.981177 0.980852 0.98053 0.980206 0.979881 0.979553 0.979223 0.97889 0.978553 0.978212 0.977867 0.977518 0.977163 0.976802 0.976435 0.976061 0.97568 0.975289 0.97489 0.97448 0.974057 0.973622 0.973172 0.972706 0.972222 0.971715 0.97118 0.970636 0.97007 0.969475 0.968915 0.968363 0.968363 
1.01807 1.01809 1.01812 1.01815 1.01816 1.01819 1.01826 1.01833 1.01841 1.01854 1.01868 1.01885 1.01904 1.01927 1.01951 1.01977 1.02004 1.02033 1.02062 1.02091 1.02119 1.02146 1.02172 1.02196 1.02218 1.02238 1.02255 1.02271 1.02284 1.02295 1.02305 1.02312 1.02318 1.02322 1.02324 1.02326 1.02325 1.02324 1.02321 1.02317 1.0231 1.02302 1.02291 1.02276 1.02257 1.02234 1.02204 1.02169 1.02128 1.0208 1.02026 1.01967 1.01904 1.01837 1.01768 1.01697 1.01624 1.01551 1.01477 1.01402 1.01328 1.01253 1.01177 1.01102 1.01027 1.00951 1.00875 1.00799 1.00723 1.00646 1.00567 1.00487 1.00404 1.00316 1.00221 1.00116 1 0.998703 0.997265 0.995705 0.994061 0.992391 0.99076 0.98923 0.98785 0.986648 0.985629 0.984781 0.984083 0.983504 0.983015 0.982591 0.982211 0.981857 0.981521 0.981193 0.980869 0.980546 0.980223 0.979898 0.979571 0.979241 0.978908 0.978572 0.978232 0.977887 0.977539 0.977185 0.976825 0.97646 0.976088 0.975709 0.975322 0.974926 0.97452 0.974104 0.973676 0.973236 0.97278 0.972309 0.971824 0.971319 0.970798 0.970274 0.969732 0.969202 0.968702 0.968702 
1.01808 1.01809 1.01812 1.01815 1.0182 1.01827 1.01836 1.01846 1.0186 1.01876 1.01895 1.01918 1.01942 1.0197 1.01999 1.02029 1.0206 1.02092 1.02123 1.02153 1.02182 1.02209 1.02234 1.02256 1.02276 1.02293 1.02308 1.02321 1.02331 1.02339 1.02346 1.0235 1.02353 1.02355 1.02355 1.02355 1.02353 1.02349 1.02345 1.02339 1.02332 1.02323 1.02311 1.02296 1.02278 1.02254 1.02225 1.02191 1.0215 1.02103 1.0205 1.01992 1.0193 1.01865 1.01797 1.01727 1.01656 1.01584 1.01511 1.01437 1.01363 1.01288 1.01212 1.01136 1.01059 1.00982 1.00904 1.00825 1.00746 1.00666 1.00585 1.00502 1.00417 1.00327 1.00232 1.00128 1.00012 0.998835 0.997406 0.99585 0.994206 0.992528 0.990884 0.989338 0.987939 0.986719 0.985684 0.984823 0.984115 0.983529 0.983037 0.98261 0.982228 0.981875 0.981538 0.981211 0.980888 0.980566 0.980243 0.979919 0.979593 0.979264 0.978931 0.978596 0.978256 0.977913 0.977565 0.977212 0.976855 0.976491 0.976121 0.975745 0.975361 0.974969 0.974568 0.974158 0.973737 0.973305 0.972862 0.972404 0.971934 0.971454 0.970959 0.970458 0.969958 0.969457 0.968975 0.968975 
1.01813 1.0181 1.01814 1.0182 1.01828 1.01837 1.0185 1.01865 1.01884 1.01905 1.0193 1.01957 1.01987 1.02019 1.02052 1.02086 1.0212 1.02154 1.02185 1.02216 1.02243 1.02268 1.02291 1.0231 1.02327 1.02341 1.02352 1.02361 1.02368 1.02373 1.02377 1.02379 1.02379 1.02378 1.02376 1.02374 1.0237 1.02365 1.0236 1.02353 1.02345 1.02335 1.02323 1.02308 1.02289 1.02266 1.02238 1.02203 1.02163 1.02117 1.02066 1.02009 1.01948 1.01884 1.01818 1.0175 1.0168 1.01609 1.01538 1.01466 1.01393 1.01319 1.01244 1.01168 1.0109 1.01012 1.00932 1.00851 1.0077 1.00687 1.00603 1.00518 1.00431 1.00341 1.00245 1.0014 1.00025 0.998968 0.997544 0.99599 0.994341 0.992655 0.990997 0.989434 0.988017 0.98678 0.98573 0.984858 0.984141 0.98355 0.983054 0.982626 0.982244 0.981892 0.981556 0.98123 0.980909 0.980588 0.980267 0.979943 0.979618 0.97929 0.978958 0.978624 0.978285 0.977943 0.977596 0.977245 0.976889 0.976527 0.97616 0.975786 0.975406 0.975018 0.974622 0.974217 0.973804 0.97338 0.972947 0.972503 0.972048 0.971585 0.971113 0.970633 0.970156 0.96968 0.969213 0.969213 
1.01819 1.01814 1.0182 1.01828 1.01839 1.01852 1.0187 1.0189 1.01914 1.01941 1.01971 1.02004 1.02038 1.02074 1.02111 1.02147 1.02182 1.02215 1.02246 1.02274 1.02299 1.02321 1.0234 1.02356 1.02368 1.02379 1.02386 1.02392 1.02395 1.02397 1.02398 1.02397 1.02395 1.02392 1.02389 1.02384 1.02379 1.02373 1.02366 1.02359 1.0235 1.0234 1.02327 1.02312 1.02293 1.0227 1.02242 1.02208 1.02169 1.02124 1.02073 1.02018 1.01958 1.01896 1.01831 1.01764 1.01697 1.01628 1.01558 1.01488 1.01417 1.01344 1.0127 1.01195 1.01118 1.01039 1.00958 1.00876 1.00793 1.00708 1.00623 1.00535 1.00446 1.00354 1.00257 1.00153 1.00038 0.999095 0.997672 0.996117 0.994463 0.992766 0.991094 0.989514 0.98808 0.986826 0.985763 0.984881 0.984158 0.983563 0.983065 0.982637 0.982257 0.981906 0.981573 0.981249 0.98093 0.980611 0.980292 0.97997 0.979646 0.979319 0.978989 0.978656 0.978318 0.977977 0.977632 0.977282 0.976928 0.976569 0.976204 0.975833 0.975456 0.975072 0.974681 0.974282 0.973875 0.97346 0.973036 0.972603 0.972162 0.971713 0.971258 0.970798 0.970337 0.969879 0.969427 0.969427 
1.01829 1.01823 1.0183 1.01841 1.01855 1.01873 1.01895 1.01921 1.0195 1.01983 1.02018 1.02056 1.02094 1.02133 1.02171 1.02208 1.02242 1.02274 1.02302 1.02327 1.02348 1.02366 1.02381 1.02392 1.024 1.02407 1.02411 1.02413 1.02413 1.02413 1.02411 1.02408 1.02404 1.02399 1.02394 1.02388 1.02381 1.02374 1.02367 1.02358 1.02349 1.02338 1.02325 1.02309 1.02291 1.02268 1.0224 1.02207 1.02168 1.02124 1.02074 1.0202 1.01962 1.019 1.01837 1.01772 1.01706 1.01639 1.01571 1.01503 1.01433 1.01363 1.0129 1.01216 1.0114 1.01062 1.00981 1.00899 1.00814 1.00728 1.0064 1.00552 1.00461 1.00368 1.0027 1.00165 1.00049 0.99921 0.997786 0.996227 0.994565 0.992856 0.991169 0.989572 0.988122 0.986853 0.985778 0.984888 0.98416 0.983563 0.983065 0.98264 0.982262 0.981915 0.981585 0.981265 0.980949 0.980634 0.980317 0.979998 0.979676 0.979352 0.979023 0.978691 0.978356 0.978016 0.977672 0.977325 0.976972 0.976615 0.976252 0.975884 0.975511 0.975131 0.974744 0.974351 0.97395 0.973543 0.973127 0.972704 0.972275 0.971838 0.971397 0.970952 0.970506 0.970061 0.969622 0.969622 
1.01845 1.01835 1.01845 1.01859 1.01878 1.019 1.01928 1.01959 1.01994 1.02031 1.02071 1.02112 1.02153 1.02193 1.02231 1.02266 1.02298 1.02327 1.02351 1.02372 1.02388 1.02402 1.02411 1.02419 1.02423 1.02426 1.02426 1.02426 1.02424 1.0242 1.02416 1.02412 1.02406 1.024 1.02393 1.02386 1.02379 1.02371 1.02362 1.02353 1.02343 1.02331 1.02318 1.02302 1.02284 1.02261 1.02233 1.02201 1.02162 1.02119 1.0207 1.02017 1.0196 1.01899 1.01837 1.01773 1.01709 1.01643 1.01578 1.01511 1.01443 1.01374 1.01304 1.01231 1.01156 1.01079 1.00999 1.00916 1.00831 1.00744 1.00656 1.00566 1.00474 1.00379 1.00281 1.00175 1.00059 0.999306 0.997878 0.996312 0.994641 0.992919 0.991216 0.989602 0.988136 0.986855 0.98577 0.984874 0.984142 0.983545 0.98305 0.982629 0.982256 0.981914 0.98159 0.981276 0.980965 0.980654 0.980341 0.980026 0.979708 0.979386 0.97906 0.97873 0.978396 0.978059 0.977717 0.977371 0.97702 0.976665 0.976306 0.97594 0.97557 0.975194 0.974812 0.974424 0.974029 0.973628 0.973221 0.972807 0.972387 0.971961 0.971531 0.971099 0.970664 0.970231 0.969802 0.969802 
1.01867 1.01854 1.01866 1.01883 1.01906 1.01934 1.01966 1.02003 1.02042 1.02084 1.02127 1.0217 1.02211 1.02251 1.02287 1.0232 1.02348 1.02372 1.02392 1.02408 1.02419 1.02428 1.02433 1.02436 1.02437 1.02437 1.02435 1.02432 1.02428 1.02423 1.02417 1.02411 1.02404 1.02397 1.02389 1.02381 1.02372 1.02364 1.02354 1.02345 1.02334 1.02322 1.02308 1.02292 1.02273 1.0225 1.02223 1.02191 1.02153 1.0211 1.02062 1.0201 1.01954 1.01894 1.01833 1.0177 1.01707 1.01643 1.01578 1.01513 1.01447 1.01379 1.0131 1.01239 1.01166 1.0109 1.0101 1.00928 1.00844 1.00756 1.00667 1.00576 1.00484 1.00388 1.00289 1.00182 1.00066 0.999374 0.99794 0.996366 0.994684 0.992947 0.991228 0.989599 0.988119 0.986825 0.985733 0.984832 0.9841 0.983506 0.983015 0.9826 0.982234 0.9819 0.981584 0.981277 0.980973 0.980669 0.980362 0.980052 0.979738 0.97942 0.979098 0.978771 0.97844 0.978105 0.977765 0.977421 0.977073 0.97672 0.976363 0.976001 0.975634 0.975261 0.974884 0.9745 0.974111 0.973716 0.973316 0.97291 0.972498 0.972082 0.971662 0.971239 0.970815 0.970391 0.96997 0.96997 
1.01896 1.01879 1.01894 1.01914 1.01941 1.01974 1.02011 1.02052 1.02095 1.0214 1.02185 1.02228 1.02268 1.02305 1.02338 1.02367 1.0239 1.02409 1.02424 1.02434 1.02441 1.02446 1.02447 1.02447 1.02445 1.02443 1.02438 1.02434 1.02428 1.02422 1.02415 1.02407 1.02399 1.02391 1.02382 1.02373 1.02364 1.02354 1.02344 1.02334 1.02323 1.0231 1.02296 1.0228 1.02261 1.02238 1.02211 1.02179 1.02142 1.021 1.02053 1.02001 1.01946 1.01887 1.01826 1.01764 1.01701 1.01638 1.01574 1.0151 1.01445 1.01378 1.01311 1.01241 1.01169 1.01094 1.01016 1.00934 1.0085 1.00763 1.00674 1.00582 1.00489 1.00393 1.00293 1.00187 1.0007 0.999406 0.997965 0.996382 0.994687 0.992936 0.991201 0.989557 0.988063 0.98676 0.985661 0.984759 0.984028 0.983438 0.982955 0.982548 0.982193 0.981869 0.981563 0.981265 0.980971 0.980675 0.980377 0.980074 0.979766 0.979453 0.979136 0.978813 0.978486 0.978153 0.977817 0.977475 0.97713 0.97678 0.976425 0.976066 0.975702 0.975333 0.974959 0.97458 0.974196 0.973807 0.973413 0.973013 0.972609 0.972201 0.97179 0.971376 0.97096 0.970544 0.97013 0.97013 
1.01933 1.01911 1.01928 1.01953 1.01984 1.0202 1.02062 1.02106 1.02151 1.02197 1.02242 1.02283 1.02321 1.02354 1.02383 1.02406 1.02424 1.02438 1.02447 1.02453 1.02456 1.02456 1.02455 1.02452 1.02449 1.02444 1.02438 1.02432 1.02425 1.02418 1.0241 1.02401 1.02392 1.02383 1.02373 1.02364 1.02354 1.02344 1.02333 1.02322 1.0231 1.02298 1.02283 1.02266 1.02247 1.02225 1.02198 1.02167 1.0213 1.02089 1.02043 1.01992 1.01937 1.01878 1.01818 1.01756 1.01694 1.0163 1.01567 1.01503 1.01438 1.01372 1.01305 1.01236 1.01165 1.01091 1.01014 1.00933 1.0085 1.00763 1.00674 1.00583 1.00489 1.00393 1.00293 1.00186 1.00069 0.999396 0.997948 0.996355 0.994647 0.992881 0.991131 0.989471 0.987966 0.986654 0.985551 0.984649 0.983922 0.98334 0.982866 0.98247 0.982126 0.981815 0.981522 0.981237 0.980954 0.98067 0.980382 0.980089 0.979789 0.979484 0.979172 0.978855 0.978532 0.978204 0.977871 0.977533 0.97719 0.976842 0.97649 0.976134 0.975773 0.975408 0.975038 0.974663 0.974284 0.9739 0.973511 0.973118 0.972721 0.97232 0.971915 0.971509 0.9711 0.970691 0.970284 0.970284 
1.0198 1.01951 1.01971 1.01999 1.02033 1.02073 1.02116 1.02162 1.02209 1.02254 1.02296 1.02334 1.02368 1.02396 1.02419 1.02437 1.02449 1.02458 1.02463 1.02465 1.02464 1.02462 1.02458 1.02454 1.02448 1.02443 1.02436 1.02429 1.02421 1.02412 1.02403 1.02394 1.02384 1.02374 1.02364 1.02354 1.02343 1.02333 1.02322 1.0231 1.02298 1.02284 1.0227 1.02253 1.02234 1.02211 1.02185 1.02155 1.02119 1.02079 1.02033 1.01982 1.01928 1.0187 1.0181 1.01748 1.01685 1.01621 1.01557 1.01493 1.01428 1.01362 1.01295 1.01227 1.01156 1.01082 1.01005 1.00926 1.00842 1.00756 1.00668 1.00577 1.00484 1.00388 1.00288 1.00181 1.00064 0.999338 0.997884 0.996281 0.99456 0.992779 0.991014 0.989341 0.987825 0.986507 0.985402 0.984501 0.98378 0.983206 0.982743 0.982361 0.982031 0.981735 0.981457 0.981188 0.98092 0.98065 0.980375 0.980093 0.979804 0.979509 0.979205 0.978895 0.978578 0.978255 0.977927 0.977592 0.977253 0.976909 0.97656 0.976206 0.975849 0.975487 0.97512 0.974749 0.974374 0.973995 0.973611 0.973224 0.972832 0.972438 0.97204 0.971639 0.971237 0.970834 0.970433 0.970433 
1.02035 1.02001 1.02022 1.02052 1.02088 1.0213 1.02174 1.0222 1.02265 1.02307 1.02346 1.02379 1.02408 1.0243 1.02447 1.0246 1.02467 1.02471 1.02472 1.02471 1.02468 1.02464 1.02458 1.02453 1.02446 1.02439 1.02432 1.02424 1.02415 1.02406 1.02396 1.02386 1.02375 1.02365 1.02354 1.02343 1.02332 1.02321 1.0231 1.02298 1.02285 1.02271 1.02257 1.0224 1.02221 1.02199 1.02174 1.02144 1.02109 1.0207 1.02025 1.01975 1.01921 1.01863 1.01802 1.01739 1.01676 1.01611 1.01546 1.01481 1.01415 1.01349 1.01281 1.01212 1.01141 1.01068 1.00991 1.00912 1.00829 1.00743 1.00655 1.00565 1.00472 1.00377 1.00277 1.00171 1.00054 0.999231 0.997771 0.996158 0.994425 0.992631 0.990852 0.989167 0.987641 0.986318 0.985212 0.984315 0.983601 0.983037 0.982587 0.982219 0.981906 0.981627 0.981366 0.981114 0.980864 0.98061 0.980351 0.980084 0.979809 0.979525 0.979233 0.978932 0.978623 0.978307 0.977983 0.977654 0.977318 0.976978 0.976632 0.976282 0.975927 0.975569 0.975206 0.974839 0.974468 0.974093 0.973714 0.973331 0.972945 0.972555 0.972163 0.971768 0.971372 0.970975 0.970578 0.970578 
1.02101 1.02059 1.02082 1.02112 1.02149 1.0219 1.02234 1.02277 1.02319 1.02357 1.0239 1.02418 1.0244 1.02457 1.02468 1.02476 1.02479 1.02479 1.02477 1.02473 1.02468 1.02463 1.02457 1.0245 1.02443 1.02435 1.02427 1.02418 1.02408 1.02398 1.02388 1.02377 1.02366 1.02355 1.02344 1.02332 1.02321 1.0231 1.02298 1.02286 1.02273 1.02259 1.02245 1.02228 1.0221 1.02188 1.02164 1.02135 1.02102 1.02063 1.02019 1.0197 1.01915 1.01857 1.01796 1.01732 1.01667 1.01601 1.01535 1.01468 1.01401 1.01333 1.01265 1.01195 1.01123 1.01049 1.00972 1.00892 1.00809 1.00724 1.00636 1.00547 1.00455 1.0036 1.00261 1.00155 1.00038 0.999074 0.997609 0.995988 0.994244 0.992437 0.990646 0.98895 0.987417 0.98609 0.984985 0.984092 0.983386 0.982833 0.982397 0.982045 0.981749 0.981488 0.981247 0.981014 0.980784 0.980549 0.980309 0.980059 0.979801 0.979532 0.979252 0.978963 0.978664 0.978356 0.97804 0.977716 0.977386 0.977049 0.976708 0.976361 0.97601 0.975654 0.975294 0.974931 0.974564 0.974192 0.973818 0.97344 0.973058 0.972674 0.972286 0.971897 0.971505 0.971113 0.97072 0.97072 
1.02175 1.02126 1.02149 1.02179 1.02214 1.02253 1.02293 1.02332 1.02369 1.02401 1.02428 1.02449 1.02466 1.02477 1.02483 1.02486 1.02485 1.02483 1.02478 1.02473 1.02467 1.02461 1.02454 1.02446 1.02439 1.0243 1.02421 1.02412 1.02401 1.0239 1.02379 1.02368 1.02356 1.02345 1.02333 1.02322 1.02311 1.02299 1.02287 1.02275 1.02262 1.02249 1.02234 1.02218 1.022 1.0218 1.02156 1.02129 1.02097 1.02059 1.02016 1.01967 1.01913 1.01854 1.01792 1.01727 1.0166 1.01593 1.01524 1.01456 1.01386 1.01317 1.01246 1.01175 1.01101 1.01026 1.00948 1.00868 1.00785 1.00699 1.00612 1.00523 1.00432 1.00338 1.0024 1.00134 1.00018 0.99887 0.997401 0.995773 0.99402 0.992202 0.9904 0.988696 0.987158 0.985829 0.984725 0.983837 0.98314 0.982599 0.982176 0.98184 0.981561 0.98132 0.981099 0.980887 0.980678 0.980465 0.980245 0.980016 0.979776 0.979525 0.979261 0.978986 0.978699 0.978402 0.978094 0.977778 0.977454 0.977123 0.976785 0.976443 0.976095 0.975743 0.975386 0.975026 0.974662 0.974295 0.973924 0.97355 0.973173 0.972793 0.97241 0.972025 0.971638 0.97125 0.970861 0.970861 
1.02257 1.022 1.02222 1.0225 1.02283 1.02317 1.02352 1.02385 1.02414 1.02439 1.02459 1.02474 1.02485 1.0249 1.02492 1.02492 1.02488 1.02483 1.02478 1.02471 1.02464 1.02457 1.0245 1.02442 1.02434 1.02425 1.02415 1.02404 1.02393 1.02382 1.0237 1.02358 1.02346 1.02335 1.02323 1.02312 1.02301 1.02289 1.02278 1.02266 1.02253 1.0224 1.02226 1.0221 1.02193 1.02174 1.02152 1.02125 1.02094 1.02058 1.02015 1.01967 1.01913 1.01854 1.0179 1.01724 1.01655 1.01586 1.01515 1.01444 1.01372 1.013 1.01227 1.01153 1.01078 1.01001 1.00921 1.0084 1.00756 1.0067 1.00583 1.00495 1.00404 1.00311 1.00214 1.00109 0.999927 0.998622 0.99715 0.995517 0.993755 0.991929 0.990119 0.988409 0.986868 0.985539 0.984438 0.983557 0.982868 0.982338 0.981929 0.981608 0.981347 0.981124 0.980923 0.980733 0.980546 0.980356 0.980159 0.979952 0.979734 0.979502 0.979258 0.978999 0.978727 0.978442 0.978146 0.977839 0.977522 0.977197 0.976865 0.976527 0.976183 0.975834 0.975481 0.975124 0.974764 0.9744 0.974033 0.973662 0.973289 0.972913 0.972534 0.972153 0.97177 0.971386 0.971001 0.971001 
1.02345 1.02282 1.02302 1.02326 1.02353 1.02381 1.02408 1.02433 1.02455 1.02472 1.02485 1.02494 1.02498 1.02499 1.02498 1.02494 1.02488 1.02482 1.02475 1.02468 1.02461 1.02453 1.02446 1.02437 1.02428 1.02419 1.02408 1.02397 1.02385 1.02373 1.02361 1.02349 1.02337 1.02325 1.02314 1.02303 1.02292 1.02281 1.02269 1.02258 1.02246 1.02233 1.02219 1.02205 1.02189 1.02171 1.0215 1.02125 1.02095 1.02059 1.02017 1.01969 1.01915 1.01855 1.01791 1.01723 1.01653 1.01581 1.01508 1.01434 1.01359 1.01284 1.01208 1.01132 1.01053 1.00974 1.00892 1.00809 1.00724 1.00638 1.00551 1.00462 1.00373 1.0028 1.00184 1.00079 0.999637 0.998333 0.99686 0.995222 0.993455 0.991623 0.989808 0.988095 0.986553 0.985227 0.984131 0.983257 0.982577 0.982058 0.981661 0.981354 0.981109 0.980904 0.980723 0.980554 0.98039 0.980223 0.98005 0.979867 0.979672 0.979463 0.97924 0.979 0.978746 0.978476 0.978193 0.977897 0.97759 0.977272 0.976946 0.976613 0.976273 0.975929 0.975579 0.975226 0.974868 0.974508 0.974144 0.973777 0.973407 0.973034 0.972659 0.972282 0.971903 0.971522 0.971141 0.971141 
1.02438 1.02369 1.02386 1.02404 1.02424 1.02444 1.02462 1.02478 1.0249 1.025 1.02505 1.02508 1.02508 1.02505 1.025 1.02494 1.02487 1.0248 1.02472 1.02465 1.02457 1.02449 1.02441 1.02432 1.02422 1.02412 1.02401 1.02389 1.02376 1.02364 1.02351 1.02339 1.02328 1.02317 1.02306 1.02295 1.02285 1.02274 1.02263 1.02252 1.0224 1.02228 1.02215 1.02202 1.02187 1.0217 1.0215 1.02126 1.02098 1.02063 1.02022 1.01974 1.0192 1.0186 1.01795 1.01725 1.01653 1.01578 1.01502 1.01425 1.01348 1.0127 1.0119 1.0111 1.01029 1.00946 1.00862 1.00777 1.0069 1.00603 1.00516 1.00427 1.00338 1.00246 1.0015 1.00047 0.999312 0.998008 0.996534 0.994893 0.993122 0.991287 0.989471 0.987759 0.98622 0.984899 0.98381 0.982944 0.982274 0.981765 0.98138 0.981086 0.980855 0.980666 0.980503 0.980355 0.980212 0.980068 0.979919 0.979761 0.979591 0.979406 0.979206 0.978989 0.978754 0.978502 0.978234 0.977951 0.977655 0.977347 0.977028 0.976701 0.976366 0.976026 0.97568 0.97533 0.974976 0.974618 0.974257 0.973893 0.973527 0.973157 0.972786 0.972412 0.972036 0.971659 0.97128 0.97128 
1.02533 1.0246 1.02472 1.02484 1.02495 1.02505 1.02513 1.02519 1.02522 1.02523 1.02522 1.02519 1.02514 1.02508 1.02501 1.02493 1.02485 1.02477 1.02469 1.02461 1.02453 1.02445 1.02436 1.02426 1.02416 1.02405 1.02392 1.0238 1.02367 1.02355 1.02342 1.02331 1.0232 1.02309 1.02299 1.02289 1.02279 1.02268 1.02258 1.02247 1.02236 1.02225 1.02213 1.02201 1.02187 1.02171 1.02153 1.0213 1.02103 1.02069 1.02029 1.01982 1.01927 1.01867 1.018 1.01729 1.01655 1.01578 1.015 1.0142 1.01339 1.01256 1.01174 1.01089 1.01004 1.00918 1.00831 1.00744 1.00655 1.00567 1.00479 1.0039 1.00301 1.0021 1.00114 1.00011 0.998955 0.997649 0.996173 0.99453 0.992757 0.990923 0.98911 0.987403 0.985872 0.98456 0.983481 0.982625 0.981965 0.981466 0.981091 0.980808 0.98059 0.980416 0.980269 0.980138 0.980016 0.979894 0.979769 0.979636 0.979491 0.979332 0.979156 0.978963 0.97875 0.978519 0.978268 0.978001 0.977717 0.97742 0.97711 0.97679 0.976461 0.976125 0.975783 0.975437 0.975086 0.974731 0.974373 0.974012 0.973649 0.973283 0.972914 0.972543 0.97217 0.971796 0.971421 0.971421 
1.02629 1.02552 1.02559 1.02563 1.02565 1.02564 1.02561 1.02557 1.02551 1.02544 1.02536 1.02527 1.02518 1.02509 1.025 1.02491 1.02482 1.02473 1.02465 1.02456 1.02448 1.02439 1.0243 1.0242 1.02409 1.02397 1.02384 1.02371 1.02358 1.02346 1.02334 1.02323 1.02312 1.02302 1.02293 1.02284 1.02274 1.02265 1.02255 1.02245 1.02234 1.02224 1.02213 1.02201 1.02189 1.02174 1.02157 1.02135 1.02109 1.02076 1.02037 1.0199 1.01936 1.01875 1.01808 1.01736 1.0166 1.01581 1.015 1.01417 1.01332 1.01246 1.01159 1.0107 1.00981 1.00891 1.008 1.0071 1.0062 1.0053 1.00441 1.00352 1.00262 1.00171 1.00076 0.999721 0.998568 0.99726 0.995778 0.994134 0.992361 0.990531 0.988726 0.98703 0.985512 0.984214 0.983148 0.982304 0.981655 0.981166 0.980802 0.980529 0.980321 0.980159 0.980026 0.979911 0.979806 0.979705 0.979602 0.979493 0.979374 0.979241 0.979091 0.978923 0.978734 0.978525 0.978295 0.978044 0.977776 0.977491 0.977191 0.976879 0.976557 0.976227 0.975889 0.975546 0.975199 0.974847 0.974492 0.974134 0.973774 0.97341 0.973044 0.972676 0.972306 0.971935 0.971562 0.971562 
1.02722 1.02644 1.02645 1.02641 1.02632 1.02621 1.02607 1.02592 1.02577 1.02562 1.02547 1.02534 1.02521 1.0251 1.02498 1.02488 1.02478 1.02469 1.0246 1.02452 1.02443 1.02434 1.02424 1.02413 1.02401 1.02389 1.02376 1.02363 1.0235 1.02338 1.02326 1.02316 1.02306 1.02297 1.02288 1.0228 1.02271 1.02262 1.02253 1.02244 1.02234 1.02224 1.02214 1.02203 1.02191 1.02178 1.02162 1.02141 1.02116 1.02085 1.02046 1.02 1.01947 1.01886 1.01818 1.01746 1.01667 1.01586 1.01503 1.01416 1.01327 1.01238 1.01146 1.01053 1.00959 1.00866 1.00772 1.00677 1.00586 1.00494 1.00402 1.00313 1.00224 1.00132 1.00036 0.999316 0.998152 0.99684 0.995351 0.993702 0.991933 0.990109 0.988318 0.986639 0.98514 0.983861 0.982813 0.981985 0.981349 0.980871 0.980516 0.980252 0.980053 0.979901 0.979779 0.979678 0.979589 0.979506 0.979423 0.979337 0.979242 0.979135 0.979011 0.978869 0.978706 0.97852 0.978312 0.978081 0.97783 0.977559 0.977271 0.976969 0.976655 0.97633 0.975998 0.975659 0.975315 0.974966 0.974614 0.974259 0.973901 0.97354 0.973177 0.972812 0.972444 0.972075 0.971705 0.971705 