# vtk DataFile Version 3.0
LBM simulation at step 90
ASCII
DATASET STRUCTURED_POINTS
DIMENSIONS 128 128 1
ORIGIN 0 0 0
SPACING 1 1 1
POINT_DATA 16384
SCALARS density float
LOOKUP_TABLE default
0.953888 1.0193 1.02105 1.01776 1.018 1.0182 1.01807 1.01797 1.01793 1.01788 1.01784 1.01781 1.01777 1.01774 1.01772 1.01769 1.01767 1.01765 1.01762 1.0176 1.01758 1.01756 1.01754 1.01752 1.0175 1.01749 1.01747 1.01745 1.01742 1.0174 1.01738 1.01736 1.01733 1.0173 1.01727 1.01723 1.01718 1.01712 1.01704 1.01694 1.01681 1.01663 1.01639 1.01606 1.01561 1.015 1.01418 1.01312 1.0118 1.01025 1.00855 1.00681 1.00516 1.00371 1.00253 1.00163 1.00099 1.00057 1.00031 1.00016 1.00008 1.00004 1.00002 1.00001 1 1 0.999999 0.999996 0.999991 0.99998 0.999958 0.999917 0.999847 0.999733 0.999559 0.999309 0.998968 0.998532 0.998002 0.997388 0.99671 0.995988 0.995246 0.994502 0.993768 0.993055 0.992365 0.9917 0.99106 0.990443 0.989846 0.989269 0.988708 0.988161 0.987625 0.9871 0.986583 0.986072 0.985567 0.985066 0.984568 0.984072 0.983577 0.983083 0.982588 0.982091 0.981592 0.981091 0.980585 0.980074 0.979558 0.979034 0.978502 0.977961 0.977408 0.976842 0.97626 0.975659 0.975035 0.974387 0.973691 0.972926 0.972137 0.971651 0.969662 0.96823 0.985537 0.985537 
1.02187 1.01992 1.01612 1.01739 1.01826 1.01819 1.01805 1.01797 1.01792 1.01788 1.01784 1.0178 1.01777 1.01774 1.01771 1.01769 1.01766 1.01764 1.01762 1.01759 1.01757 1.01755 1.01753 1.01751 1.01749 1.01747 1.01745 1.01743 1.01741 1.01738 1.01736 1.01733 1.0173 1.01727 1.01724 1.01719 1.01714 1.01707 1.01699 1.01688 1.01674 1.01655 1.01629 1.01595 1.0155 1.0149 1.01411 1.0131 1.01185 1.01038 1.00874 1.00705 1.00542 1.00395 1.00273 1.00179 1.00111 1.00065 1.00036 1.00019 1.00009 1.00004 1.00002 1.00001 1 1 0.999998 0.999995 0.999989 0.999976 0.999951 0.999905 0.999827 0.999703 0.999516 0.999252 0.998898 0.99845 0.997913 0.997298 0.996624 0.995911 0.99518 0.994447 0.993725 0.99302 0.992337 0.991677 0.99104 0.990425 0.98983 0.989254 0.988693 0.988145 0.987609 0.987083 0.986565 0.986053 0.985547 0.985045 0.984546 0.984048 0.983552 0.983056 0.982559 0.98206 0.981559 0.981055 0.980546 0.980033 0.979512 0.978985 0.978448 0.977901 0.977341 0.976767 0.976176 0.975563 0.974926 0.974264 0.973564 0.972765 0.971782 0.971013 0.971548 0.972543 0.970519 0.970519 
1.02927 1.0168 1.01619 1.01871 1.01833 1.01793 1.01795 1.01798 1.01792 1.01787 1.01783 1.01779 1.01776 1.01773 1.0177 1.01768 1.01765 1.01763 1.01761 1.01758 1.01756 1.01754 1.01752 1.0175 1.01748 1.01746 1.01743 1.01741 1.01739 1.01736 1.01734 1.01731 1.01727 1.01724 1.0172 1.01715 1.01709 1.01701 1.01692 1.0168 1.01665 1.01646 1.0162 1.01586 1.01543 1.01486 1.01411 1.01316 1.01197 1.01055 1.00895 1.00728 1.00564 1.00415 1.00289 1.00191 1.00119 1.0007 1.00039 1.00021 1.0001 1.00005 1.00002 1.00001 1 1 0.999998 0.999995 0.999988 0.999974 0.999947 0.999898 0.999816 0.999685 0.99949 0.999216 0.998852 0.998395 0.99785 0.997231 0.996555 0.995845 0.99512 0.994395 0.993681 0.992985 0.992309 0.991656 0.991025 0.990413 0.989821 0.989246 0.988686 0.988139 0.987603 0.987076 0.986558 0.986045 0.985538 0.985035 0.984534 0.984036 0.983538 0.98304 0.982542 0.982041 0.981538 0.981032 0.980521 0.980004 0.979481 0.97895 0.97841 0.977859 0.977294 0.976714 0.976117 0.975499 0.974853 0.974162 0.973431 0.972718 0.972007 0.971057 0.970416 0.968456 0.961779 0.961779 
1.01408 1.01843 1.02046 1.01814 1.0175 1.01801 1.01809 1.01795 1.01788 1.01785 1.01782 1.01778 1.01775 1.01772 1.01769 1.01767 1.01764 1.01762 1.01759 1.01757 1.01755 1.01753 1.0175 1.01748 1.01746 1.01744 1.01741 1.01739 1.01736 1.01734 1.01731 1.01728 1.01724 1.0172 1.01716 1.0171 1.01704 1.01696 1.01686 1.01674 1.01658 1.01638 1.01613 1.0158 1.01538 1.01484 1.01413 1.01322 1.01208 1.01071 1.00915 1.00748 1.00584 1.00433 1.00304 1.00202 1.00127 1.00075 1.00042 1.00022 1.00011 1.00005 1.00002 1.00001 1 1 0.999998 0.999994 0.999987 0.999972 0.999944 0.999893 0.999808 0.999673 0.999473 0.999193 0.998822 0.998359 0.997809 0.997186 0.99651 0.995801 0.995079 0.994359 0.993651 0.992961 0.992292 0.991644 0.991016 0.990409 0.989819 0.989246 0.988687 0.98814 0.987604 0.987078 0.986559 0.986046 0.985538 0.985034 0.984532 0.984033 0.983534 0.983035 0.982535 0.982034 0.981529 0.981021 0.980508 0.97999 0.979465 0.978932 0.978389 0.977835 0.977268 0.976685 0.976083 0.975458 0.974811 0.974138 0.973409 0.972602 0.971858 0.971118 0.969975 0.967842 0.963542 0.963542 
1.01829 1.01898 1.01809 1.01765 1.01823 1.01813 1.0179 1.01787 1.01788 1.01784 1.0178 1.01776 1.01773 1.01771 1.01768 1.01765 1.01763 1.0176 1.01758 1.01756 1.01753 1.01751 1.01749 1.01747 1.01744 1.01742 1.01739 1.01737 1.01734 1.01731 1.01728 1.01725 1.01721 1.01717 1.01712 1.01706 1.01699 1.01691 1.01681 1.01668 1.01652 1.01632 1.01607 1.01575 1.01534 1.01482 1.01415 1.01328 1.01219 1.01086 1.00933 1.00768 1.00603 1.0045 1.00318 1.00213 1.00134 1.0008 1.00045 1.00024 1.00012 1.00006 1.00003 1.00001 1 1 0.999998 0.999994 0.999987 0.999971 0.999942 0.99989 0.999803 0.999666 0.999462 0.999178 0.998804 0.998337 0.997784 0.99716 0.996483 0.995776 0.995058 0.994342 0.993638 0.992953 0.992288 0.991644 0.991019 0.990414 0.989826 0.989254 0.988696 0.98815 0.987615 0.987088 0.986569 0.986055 0.985547 0.985042 0.98454 0.98404 0.98354 0.98304 0.982539 0.982037 0.981531 0.981022 0.980508 0.979989 0.979463 0.978928 0.978384 0.977829 0.977261 0.976677 0.976076 0.975453 0.974799 0.974118 0.973418 0.97267 0.97185 0.970899 0.969386 0.968051 0.966927 0.966927 
1.01921 1.01813 1.0177 1.01833 1.0182 1.01785 1.01788 1.01792 1.01786 1.0178 1.01778 1.01775 1.01772 1.01769 1.01766 1.01764 1.01761 1.01759 1.01756 1.01754 1.01752 1.01749 1.01747 1.01745 1.01742 1.0174 1.01737 1.01735 1.01732 1.01729 1.01726 1.01722 1.01718 1.01713 1.01708 1.01702 1.01695 1.01686 1.01676 1.01663 1.01646 1.01626 1.01601 1.0157 1.0153 1.01481 1.01417 1.01334 1.0123 1.01101 1.00951 1.00787 1.00622 1.00466 1.00331 1.00223 1.00141 1.00085 1.00048 1.00026 1.00013 1.00006 1.00003 1.00001 1 1 0.999998 0.999994 0.999987 0.999971 0.999942 0.999889 0.999802 0.999663 0.999459 0.999173 0.998797 0.998329 0.997775 0.99715 0.996474 0.995769 0.995053 0.99434 0.993641 0.992959 0.992298 0.991657 0.991035 0.990432 0.989845 0.989274 0.988716 0.988171 0.987635 0.987108 0.986588 0.986075 0.985566 0.98506 0.984557 0.984056 0.983556 0.983056 0.982554 0.982051 0.981545 0.981035 0.98052 0.98 0.979474 0.978939 0.978395 0.97784 0.977272 0.976689 0.976088 0.975469 0.974827 0.97415 0.97344 0.9727 0.971875 0.970979 0.969829 0.968679 0.967957 0.967957 
1.01772 1.01804 1.01823 1.0181 1.01784 1.01792 1.01794 1.01785 1.0178 1.01779 1.01776 1.01773 1.0177 1.01767 1.01764 1.01762 1.01759 1.01757 1.01755 1.01752 1.0175 1.01748 1.01745 1.01743 1.01741 1.01738 1.01735 1.01733 1.0173 1.01726 1.01723 1.01719 1.01715 1.0171 1.01705 1.01698 1.01691 1.01682 1.01671 1.01657 1.01641 1.0162 1.01595 1.01565 1.01527 1.0148 1.01419 1.01341 1.0124 1.01116 1.00968 1.00806 1.0064 1.00482 1.00344 1.00232 1.00148 1.00089 1.00051 1.00027 1.00014 1.00007 1.00003 1.00001 1 1 0.999998 0.999994 0.999987 0.999971 0.999942 0.99989 0.999803 0.999666 0.999462 0.999177 0.998802 0.998334 0.997781 0.997157 0.996482 0.995778 0.995064 0.994354 0.993657 0.992979 0.992321 0.991682 0.991063 0.990461 0.989876 0.989305 0.988748 0.988202 0.987666 0.987139 0.986618 0.986104 0.985594 0.985088 0.984585 0.984083 0.983582 0.983081 0.982579 0.982076 0.981569 0.981059 0.980544 0.980024 0.979497 0.978963 0.97842 0.977866 0.9773 0.97672 0.976123 0.975506 0.974869 0.974208 0.973514 0.972781 0.971963 0.971085 0.970248 0.969289 0.968384 0.968384 
1.01789 1.018 1.01802 1.01788 1.01792 1.01794 1.01784 1.0178 1.0178 1.01777 1.01773 1.0177 1.01768 1.01765 1.01763 1.0176 1.01758 1.01755 1.01753 1.01751 1.01748 1.01746 1.01744 1.01741 1.01739 1.01736 1.01733 1.0173 1.01727 1.01724 1.0172 1.01716 1.01712 1.01707 1.01701 1.01694 1.01686 1.01677 1.01666 1.01652 1.01635 1.01615 1.0159 1.0156 1.01524 1.01479 1.01422 1.01348 1.01252 1.0113 1.00986 1.00824 1.00657 1.00497 1.00357 1.00241 1.00154 1.00093 1.00053 1.00029 1.00015 1.00007 1.00003 1.00001 1.00001 1 0.999998 0.999995 0.999987 0.999972 0.999944 0.999893 0.999807 0.999672 0.999471 0.999189 0.998817 0.998352 0.997802 0.99718 0.996507 0.995804 0.995092 0.994383 0.993689 0.993013 0.992357 0.99172 0.991102 0.990502 0.989917 0.989347 0.98879 0.988243 0.987707 0.987179 0.986659 0.986144 0.985634 0.985127 0.984623 0.984121 0.983619 0.983118 0.982615 0.982111 0.981604 0.981094 0.98058 0.98006 0.979534 0.979 0.978458 0.977906 0.977342 0.976765 0.976174 0.975565 0.974935 0.974283 0.973601 0.972887 0.972139 0.971327 0.970532 0.969712 0.96884 0.96884 
1.01799 1.01789 1.01786 1.01789 1.0179 1.01783 1.0178 1.0178 1.01776 1.01773 1.0177 1.01768 1.01765 1.01763 1.01761 1.01758 1.01756 1.01754 1.01751 1.01749 1.01746 1.01744 1.01742 1.01739 1.01737 1.01734 1.01731 1.01728 1.01725 1.01721 1.01718 1.01713 1.01709 1.01703 1.01697 1.0169 1.01682 1.01672 1.01661 1.01647 1.0163 1.01609 1.01585 1.01556 1.01522 1.01479 1.01426 1.01355 1.01263 1.01145 1.01003 1.00842 1.00674 1.00512 1.00368 1.0025 1.0016 1.00097 1.00056 1.0003 1.00015 1.00007 1.00003 1.00001 1.00001 1 0.999999 0.999995 0.999988 0.999973 0.999946 0.999897 0.999814 0.999682 0.999485 0.999209 0.998843 0.998383 0.997838 0.997219 0.996549 0.995848 0.995136 0.994428 0.993735 0.99306 0.992405 0.99177 0.991153 0.990554 0.989969 0.989399 0.988842 0.988296 0.987759 0.987231 0.986709 0.986194 0.985683 0.985176 0.984671 0.984169 0.983667 0.983165 0.982662 0.982158 0.981651 0.981141 0.980627 0.980107 0.979582 0.97905 0.978509 0.97796 0.977399 0.976827 0.97624 0.975638 0.975018 0.974379 0.973714 0.973018 0.972308 0.97157 0.970795 0.970043 0.969287 0.969287 
1.01781 1.01783 1.01784 1.01784 1.01781 1.01779 1.01778 1.01775 1.01772 1.0177 1.01768 1.01766 1.01763 1.01761 1.01758 1.01756 1.01754 1.01752 1.01749 1.01747 1.01745 1.01742 1.0174 1.01737 1.01735 1.01732 1.01729 1.01726 1.01722 1.01719 1.01715 1.0171 1.01706 1.017 1.01694 1.01686 1.01678 1.01668 1.01656 1.01642 1.01624 1.01604 1.01581 1.01553 1.0152 1.0148 1.01429 1.01363 1.01275 1.0116 1.0102 1.0086 1.00691 1.00526 1.0038 1.00258 1.00166 1.00101 1.00058 1.00031 1.00016 1.00008 1.00003 1.00001 1.00001 1 0.999999 0.999995 0.999989 0.999975 0.999949 0.999902 0.999823 0.999696 0.999505 0.999236 0.998878 0.998427 0.997887 0.997274 0.996607 0.995908 0.995197 0.994489 0.993796 0.993121 0.992467 0.991832 0.991216 0.990617 0.990033 0.989463 0.988905 0.988358 0.987821 0.987292 0.98677 0.986254 0.985743 0.985235 0.98473 0.984227 0.983724 0.983222 0.982719 0.982215 0.981708 0.981198 0.980685 0.980166 0.979642 0.979112 0.978573 0.978026 0.977469 0.976901 0.976321 0.975726 0.975116 0.974487 0.973842 0.973173 0.972484 0.971786 0.971062 0.970342 0.969641 0.969641 
1.01777 1.01779 1.01779 1.01777 1.01776 1.01776 1.01774 1.01771 1.01769 1.01768 1.01765 1.01763 1.01761 1.01759 1.01756 1.01754 1.01752 1.0175 1.01747 1.01745 1.01743 1.0174 1.01738 1.01735 1.01732 1.0173 1.01727 1.01723 1.0172 1.01716 1.01712 1.01707 1.01702 1.01697 1.0169 1.01682 1.01674 1.01663 1.01651 1.01637 1.0162 1.01599 1.01576 1.0155 1.01518 1.01481 1.01434 1.01371 1.01286 1.01175 1.01037 1.00877 1.00707 1.0054 1.0039 1.00266 1.00171 1.00104 1.0006 1.00032 1.00016 1.00008 1.00004 1.00002 1.00001 1 0.999999 0.999996 0.999989 0.999977 0.999953 0.999909 0.999833 0.999713 0.99953 0.99927 0.998922 0.998481 0.997951 0.997345 0.996682 0.995985 0.995275 0.994567 0.993872 0.993197 0.992542 0.991908 0.991292 0.990692 0.990108 0.989538 0.98898 0.988432 0.987894 0.987365 0.986842 0.986325 0.985813 0.985305 0.984799 0.984295 0.983793 0.98329 0.982787 0.982283 0.981776 0.981267 0.980754 0.980237 0.979714 0.979185 0.978649 0.978105 0.977552 0.976989 0.976414 0.975827 0.975227 0.97461 0.973979 0.973333 0.972668 0.971992 0.97131 0.970619 0.96994 0.96994 
1.01775 1.01773 1.01773 1.01773 1.01773 1.01771 1.01769 1.01768 1.01766 1.01764 1.01762 1.0176 1.01758 1.01756 1.01754 1.01752 1.0175 1.01747 1.01745 1.01743 1.0174 1.01738 1.01735 1.01733 1.0173 1.01727 1.01724 1.01721 1.01717 1.01713 1.01709 1.01704 1.01699 1.01693 1.01686 1.01679 1.01669 1.01659 1.01646 1.01632 1.01615 1.01595 1.01572 1.01547 1.01518 1.01483 1.01439 1.0138 1.01299 1.0119 1.01053 1.00894 1.00722 1.00553 1.004 1.00273 1.00176 1.00107 1.00061 1.00033 1.00017 1.00008 1.00004 1.00002 1.00001 1 0.999999 0.999996 0.999991 0.999979 0.999957 0.999916 0.999846 0.999732 0.999558 0.99931 0.998974 0.998546 0.998027 0.99743 0.996774 0.99608 0.99537 0.994661 0.993965 0.993288 0.992632 0.991996 0.99138 0.99078 0.990195 0.989624 0.989065 0.988517 0.987978 0.987448 0.986924 0.986407 0.985894 0.985385 0.984879 0.984374 0.983871 0.983369 0.982866 0.982362 0.981856 0.981347 0.980835 0.980318 0.979797 0.97927 0.978737 0.978196 0.977647 0.977088 0.97652 0.97594 0.975349 0.974745 0.974127 0.973497 0.972855 0.972199 0.97154 0.970876 0.970215 0.970215 
1.01769 1.01769 1.01769 1.01769 1.01768 1.01767 1.01766 1.01765 1.01763 1.01761 1.01759 1.01758 1.01755 1.01754 1.01751 1.0175 1.01747 1.01745 1.01743 1.01741 1.01738 1.01736 1.01733 1.01731 1.01728 1.01725 1.01722 1.01718 1.01715 1.01711 1.01706 1.01701 1.01696 1.0169 1.01683 1.01675 1.01665 1.01654 1.01642 1.01627 1.0161 1.01591 1.01569 1.01545 1.01517 1.01485 1.01444 1.01389 1.01311 1.01205 1.0107 1.0091 1.00737 1.00565 1.0041 1.0028 1.00181 1.0011 1.00063 1.00034 1.00017 1.00008 1.00004 1.00002 1.00001 1 0.999999 0.999997 0.999992 0.999981 0.999961 0.999924 0.999859 0.999753 0.99959 0.999354 0.999033 0.998619 0.998115 0.997529 0.996881 0.996191 0.995482 0.994772 0.994073 0.993394 0.992736 0.992098 0.991481 0.99088 0.990294 0.989722 0.989162 0.988613 0.988073 0.987542 0.987018 0.986499 0.985985 0.985476 0.984969 0.984464 0.983961 0.983458 0.982955 0.982451 0.981946 0.981438 0.980927 0.980412 0.979892 0.979367 0.978836 0.978299 0.977753 0.9772 0.976637 0.976065 0.975482 0.974888 0.974283 0.973667 0.973041 0.972406 0.971764 0.97112 0.970476 0.970476 
1.01765 1.01765 1.01765 1.01765 1.01764 1.01764 1.01763 1.01761 1.0176 1.01758 1.01756 1.01755 1.01753 1.01751 1.01749 1.01747 1.01745 1.01743 1.01741 1.01738 1.01736 1.01734 1.01731 1.01728 1.01725 1.01722 1.01719 1.01716 1.01712 1.01708 1.01703 1.01698 1.01692 1.01686 1.01679 1.01671 1.01661 1.0165 1.01637 1.01623 1.01606 1.01587 1.01566 1.01543 1.01517 1.01488 1.01451 1.01398 1.01324 1.0122 1.01086 1.00926 1.00751 1.00577 1.00419 1.00286 1.00185 1.00112 1.00064 1.00035 1.00018 1.00009 1.00004 1.00002 1.00001 1 1 0.999997 0.999993 0.999984 0.999965 0.999932 0.999872 0.999775 0.999623 0.999402 0.999098 0.998701 0.998213 0.997642 0.997004 0.99632 0.995612 0.994901 0.994199 0.993516 0.992855 0.992215 0.991595 0.990993 0.990406 0.989833 0.989272 0.988721 0.98818 0.987648 0.987122 0.986603 0.986088 0.985578 0.985071 0.984566 0.984062 0.983559 0.983056 0.982552 0.982047 0.98154 0.98103 0.980516 0.979998 0.979475 0.978947 0.978413 0.977871 0.977323 0.976766 0.9762 0.975625 0.97504 0.974447 0.973843 0.973231 0.972611 0.971985 0.971355 0.970726 0.970726 
1.01762 1.01761 1.01762 1.01761 1.01761 1.0176 1.01759 1.01758 1.01757 1.01755 1.01754 1.01752 1.0175 1.01749 1.01746 1.01745 1.01743 1.01741 1.01738 1.01736 1.01734 1.01731 1.01729 1.01726 1.01723 1.0172 1.01717 1.01713 1.01709 1.01705 1.017 1.01695 1.01689 1.01683 1.01675 1.01667 1.01657 1.01646 1.01633 1.01618 1.01601 1.01583 1.01563 1.01541 1.01518 1.01492 1.01457 1.01409 1.01337 1.01236 1.01102 1.00941 1.00764 1.00588 1.00427 1.00292 1.00189 1.00115 1.00066 1.00036 1.00018 1.00009 1.00004 1.00002 1.00001 1 1 0.999998 0.999994 0.999986 0.99997 0.99994 0.999887 0.999798 0.999658 0.999453 0.999166 0.99879 0.998321 0.997766 0.99714 0.996464 0.99576 0.995048 0.994343 0.993656 0.99299 0.992347 0.991724 0.991119 0.990531 0.989956 0.989393 0.988841 0.988299 0.987765 0.987238 0.986718 0.986203 0.985691 0.985183 0.984678 0.984174 0.983671 0.983168 0.982665 0.98216 0.981653 0.981144 0.980632 0.980116 0.979595 0.97907 0.978538 0.978001 0.977457 0.976905 0.976345 0.975778 0.975202 0.974617 0.974025 0.973424 0.972817 0.972204 0.971587 0.97097 0.97097 
1.01758 1.01758 1.01758 1.01758 1.01757 1.01757 1.01756 1.01755 1.01754 1.01752 1.01751 1.01749 1.01748 1.01746 1.01744 1.01742 1.0174 1.01738 1.01736 1.01734 1.01731 1.01729 1.01726 1.01723 1.0172 1.01717 1.01714 1.0171 1.01706 1.01702 1.01697 1.01692 1.01686 1.01679 1.01671 1.01663 1.01653 1.01641 1.01628 1.01614 1.01597 1.01579 1.0156 1.0154 1.01519 1.01496 1.01465 1.01419 1.01351 1.01251 1.01118 1.00956 1.00777 1.00598 1.00434 1.00297 1.00192 1.00117 1.00067 1.00036 1.00018 1.00009 1.00004 1.00002 1.00001 1 1 0.999998 0.999995 0.999988 0.999974 0.999948 0.9999 0.999821 0.999694 0.999505 0.999238 0.998883 0.998436 0.997901 0.997291 0.996625 0.995925 0.995213 0.994505 0.993813 0.993142 0.992494 0.991868 0.99126 0.990669 0.990092 0.989527 0.988974 0.98843 0.987895 0.987367 0.986845 0.986328 0.985816 0.985308 0.984802 0.984297 0.983794 0.983291 0.982788 0.982284 0.981778 0.98127 0.980759 0.980245 0.979726 0.979203 0.978675 0.978141 0.977601 0.977055 0.976501 0.97594 0.975372 0.974796 0.974213 0.973623 0.973026 0.972424 0.971818 0.971211 0.971211 
1.01755 1.01754 1.01755 1.01754 1.01754 1.01753 1.01753 1.01752 1.0175 1.01749 1.01748 1.01747 1.01745 1.01743 1.01741 1.0174 1.01738 1.01736 1.01733 1.01731 1.01729 1.01726 1.01724 1.01721 1.01718 1.01715 1.01711 1.01707 1.01703 1.01699 1.01694 1.01688 1.01682 1.01675 1.01668 1.01659 1.01649 1.01637 1.01624 1.0161 1.01594 1.01576 1.01558 1.0154 1.01522 1.01501 1.01473 1.01431 1.01364 1.01266 1.01133 1.0097 1.00789 1.00608 1.00441 1.00302 1.00195 1.00118 1.00068 1.00037 1.00019 1.00009 1.00004 1.00002 1.00001 1 1 0.999999 0.999996 0.99999 0.999978 0.999955 0.999914 0.999843 0.99973 0.999557 0.999312 0.99898 0.998557 0.998044 0.997453 0.9968 0.996107 0.995397 0.994687 0.993989 0.993312 0.992659 0.992027 0.991415 0.990821 0.990242 0.989675 0.989119 0.988574 0.988037 0.987507 0.986984 0.986467 0.985953 0.985444 0.984937 0.984433 0.983929 0.983426 0.982923 0.98242 0.981915 0.981408 0.980898 0.980385 0.979869 0.979349 0.978823 0.978293 0.977757 0.977215 0.976667 0.976113 0.975551 0.974983 0.974408 0.973827 0.973239 0.972647 0.97205 0.971451 0.971451 
1.01752 1.01751 1.01751 1.01751 1.01751 1.0175 1.01749 1.01749 1.01747 1.01746 1.01745 1.01744 1.01742 1.01741 1.01739 1.01737 1.01735 1.01733 1.01731 1.01729 1.01726 1.01724 1.01721 1.01718 1.01715 1.01712 1.01708 1.01705 1.017 1.01696 1.01691 1.01685 1.01679 1.01672 1.01664 1.01655 1.01644 1.01633 1.0162 1.01606 1.0159 1.01573 1.01557 1.0154 1.01524 1.01507 1.01482 1.01443 1.01378 1.01281 1.01148 1.00984 1.00801 1.00616 1.00448 1.00306 1.00197 1.0012 1.00069 1.00037 1.00019 1.00009 1.00004 1.00002 1.00001 1 1 0.999999 0.999997 0.999992 0.999982 0.999962 0.999927 0.999865 0.999764 0.999609 0.999385 0.999079 0.998682 0.998195 0.997625 0.996988 0.996306 0.995599 0.994887 0.994185 0.993501 0.992841 0.992203 0.991587 0.990988 0.990406 0.989836 0.989278 0.988731 0.988192 0.987661 0.987136 0.986617 0.986103 0.985593 0.985085 0.98458 0.984076 0.983573 0.983071 0.982567 0.982063 0.981557 0.981049 0.980538 0.980024 0.979506 0.978983 0.978456 0.977924 0.977387 0.976844 0.976295 0.975739 0.975178 0.97461 0.974037 0.973458 0.972874 0.972285 0.971694 0.971694 
1.01749 1.01748 1.01748 1.01748 1.01748 1.01747 1.01746 1.01746 1.01745 1.01744 1.01742 1.01741 1.01739 1.01738 1.01736 1.01734 1.01732 1.01731 1.01728 1.01726 1.01724 1.01721 1.01718 1.01716 1.01712 1.01709 1.01706 1.01702 1.01697 1.01693 1.01687 1.01682 1.01675 1.01668 1.0166 1.01651 1.0164 1.01629 1.01616 1.01602 1.01587 1.01571 1.01556 1.01541 1.01528 1.01513 1.01492 1.01455 1.01393 1.01296 1.01163 1.00997 1.00811 1.00625 1.00453 1.0031 1.002 1.00121 1.00069 1.00037 1.00019 1.00009 1.00004 1.00002 1.00001 1 1 0.999999 0.999997 0.999993 0.999985 0.999969 0.999939 0.999885 0.999797 0.99966 0.999458 0.999178 0.998809 0.99835 0.997805 0.997189 0.996519 0.995819 0.995107 0.9944 0.99371 0.993042 0.992397 0.991775 0.991171 0.990585 0.990012 0.989452 0.988902 0.988361 0.987827 0.987301 0.986781 0.986265 0.985754 0.985246 0.98474 0.984236 0.983733 0.98323 0.982727 0.982224 0.981719 0.981212 0.980702 0.98019 0.979674 0.979155 0.978631 0.978103 0.977569 0.977031 0.976487 0.975937 0.975382 0.974821 0.974255 0.973683 0.973106 0.972525 0.971941 0.971941 
1.01746 1.01745 1.01745 1.01745 1.01744 1.01744 1.01743 1.01743 1.01742 1.01741 1.01739 1.01738 1.01737 1.01735 1.01733 1.01732 1.0173 1.01728 1.01726 1.01724 1.01721 1.01719 1.01716 1.01713 1.0171 1.01706 1.01703 1.01699 1.01694 1.01689 1.01684 1.01678 1.01672 1.01664 1.01656 1.01647 1.01636 1.01625 1.01612 1.01598 1.01583 1.01569 1.01555 1.01543 1.01532 1.01521 1.01502 1.01468 1.01407 1.01311 1.01177 1.01009 1.00821 1.00632 1.00458 1.00313 1.00202 1.00122 1.0007 1.00038 1.00019 1.00009 1.00004 1.00002 1.00001 1 1 0.999999 0.999998 0.999995 0.999988 0.999975 0.999949 0.999904 0.999828 0.999708 0.999528 0.999275 0.998936 0.998508 0.997992 0.997399 0.996746 0.996055 0.995346 0.994636 0.993939 0.993263 0.99261 0.99198 0.991371 0.99078 0.990203 0.98964 0.989087 0.988543 0.988008 0.98748 0.986958 0.986441 0.985928 0.985419 0.984913 0.984408 0.983905 0.983402 0.9829 0.982397 0.981893 0.981387 0.980879 0.980369 0.979855 0.979338 0.978818 0.978293 0.977763 0.977229 0.97669 0.976145 0.975596 0.975041 0.97448 0.973915 0.973345 0.972771 0.972193 0.972193 
1.01743 1.01742 1.01742 1.01742 1.01741 1.01741 1.0174 1.0174 1.01739 1.01738 1.01736 1.01735 1.01734 1.01732 1.01731 1.01729 1.01727 1.01725 1.01723 1.01721 1.01718 1.01716 1.01713 1.0171 1.01707 1.01703 1.017 1.01696 1.01691 1.01686 1.01681 1.01675 1.01668 1.0166 1.01652 1.01643 1.01632 1.01621 1.01608 1.01595 1.01581 1.01567 1.01555 1.01546 1.01538 1.01529 1.01514 1.01482 1.01422 1.01326 1.0119 1.0102 1.0083 1.00638 1.00463 1.00316 1.00203 1.00123 1.0007 1.00038 1.00019 1.00009 1.00004 1.00002 1.00001 1 1 1 0.999998 0.999996 0.999991 0.99998 0.999959 0.999921 0.999857 0.999753 0.999595 0.999369 0.999062 0.998666 0.998182 0.997616 0.996985 0.996307 0.995603 0.994892 0.99419 0.993506 0.992844 0.992206 0.991589 0.990992 0.990411 0.989843 0.989287 0.988741 0.988203 0.987673 0.987149 0.98663 0.986116 0.985606 0.985099 0.984594 0.98409 0.983588 0.983086 0.982583 0.98208 0.981575 0.981069 0.98056 0.980049 0.979534 0.979016 0.978494 0.977969 0.977438 0.976903 0.976364 0.975819 0.97527 0.974715 0.974156 0.973592 0.973023 0.972451 0.972451 
1.0174 1.01739 1.01739 1.01739 1.01738 1.01738 1.01737 1.01737 1.01736 1.01735 1.01734 1.01733 1.01731 1.0173 1.01728 1.01726 1.01724 1.01723 1.0172 1.01718 1.01716 1.01713 1.0171 1.01707 1.01704 1.017 1.01697 1.01692 1.01688 1.01683 1.01677 1.01671 1.01664 1.01657 1.01648 1.01639 1.01628 1.01617 1.01604 1.01591 1.01579 1.01567 1.01557 1.0155 1.01545 1.01539 1.01526 1.01496 1.01437 1.0134 1.01203 1.01031 1.00838 1.00644 1.00467 1.00319 1.00205 1.00124 1.00071 1.00038 1.00019 1.00009 1.00004 1.00002 1.00001 1 1 1 0.999999 0.999997 0.999993 0.999984 0.999967 0.999936 0.999882 0.999794 0.999658 0.999458 0.999183 0.998822 0.998372 0.997838 0.997233 0.996572 0.995878 0.995169 0.994463 0.993771 0.9931 0.992452 0.991827 0.991223 0.990636 0.990063 0.989503 0.988954 0.988413 0.987881 0.987355 0.986834 0.986319 0.985807 0.985299 0.984793 0.98429 0.983787 0.983285 0.982783 0.98228 0.981776 0.981271 0.980764 0.980255 0.979743 0.979227 0.978709 0.978186 0.97766 0.977129 0.976594 0.976054 0.975509 0.97496 0.974406 0.973848 0.973285 0.972718 0.972718 
1.01737 1.01736 1.01736 1.01736 1.01735 1.01735 1.01734 1.01734 1.01733 1.01732 1.01731 1.0173 1.01728 1.01727 1.01725 1.01724 1.01722 1.0172 1.01718 1.01715 1.01713 1.0171 1.01707 1.01704 1.01701 1.01697 1.01693 1.01689 1.01684 1.01679 1.01674 1.01667 1.0166 1.01653 1.01644 1.01635 1.01624 1.01613 1.01601 1.01589 1.01577 1.01567 1.01559 1.01555 1.01553 1.0155 1.01539 1.0151 1.01452 1.01354 1.01215 1.01041 1.00846 1.0065 1.0047 1.00321 1.00206 1.00125 1.00071 1.00038 1.00019 1.00009 1.00004 1.00002 1.00001 1 1 1 0.999999 0.999998 0.999995 0.999988 0.999975 0.999949 0.999905 0.999831 0.999715 0.999542 0.999298 0.998973 0.99856 0.998062 0.997486 0.996849 0.996168 0.995465 0.994757 0.994059 0.993378 0.992721 0.992086 0.991473 0.990879 0.990301 0.989737 0.989184 0.98864 0.988104 0.987576 0.987053 0.986536 0.986023 0.985514 0.985007 0.984503 0.984 0.983498 0.982996 0.982494 0.981992 0.981488 0.980982 0.980475 0.979965 0.979452 0.978936 0.978416 0.977893 0.977366 0.976835 0.9763 0.97576 0.975216 0.974667 0.974113 0.973556 0.972994 0.972994 
1.01734 1.01733 1.01733 1.01733 1.01732 1.01732 1.01731 1.01731 1.0173 1.01729 1.01728 1.01727 1.01725 1.01724 1.01722 1.01721 1.01719 1.01717 1.01715 1.01712 1.0171 1.01707 1.01704 1.01701 1.01698 1.01694 1.0169 1.01686 1.01681 1.01676 1.0167 1.01664 1.01657 1.01649 1.01641 1.01631 1.01621 1.0161 1.01599 1.01588 1.01577 1.01569 1.01564 1.01562 1.01563 1.01563 1.01554 1.01525 1.01467 1.01368 1.01227 1.0105 1.00853 1.00654 1.00473 1.00322 1.00207 1.00125 1.00071 1.00038 1.00019 1.00009 1.00004 1.00002 1.00001 1 1 1 0.999999 0.999998 0.999996 0.999991 0.99998 0.999961 0.999925 0.999864 0.999766 0.999618 0.999406 0.999117 0.998743 0.998283 0.997742 0.997133 0.996472 0.995779 0.995073 0.99437 0.993681 0.993013 0.992368 0.991745 0.991143 0.990558 0.989988 0.989431 0.988883 0.988344 0.987813 0.987289 0.986769 0.986255 0.985744 0.985236 0.984731 0.984228 0.983726 0.983224 0.982723 0.982221 0.981718 0.981214 0.980708 0.9802 0.97969 0.979177 0.97866 0.97814 0.977617 0.97709 0.976558 0.976023 0.975483 0.974939 0.97439 0.973838 0.973281 0.973281 
1.01731 1.0173 1.0173 1.0173 1.01729 1.01729 1.01728 1.01728 1.01727 1.01726 1.01725 1.01724 1.01722 1.01721 1.01719 1.01718 1.01716 1.01714 1.01712 1.0171 1.01707 1.01704 1.01701 1.01698 1.01695 1.01691 1.01687 1.01683 1.01678 1.01673 1.01667 1.01661 1.01654 1.01646 1.01638 1.01629 1.01619 1.01609 1.01598 1.01588 1.0158 1.01574 1.01571 1.01573 1.01576 1.01578 1.0157 1.01542 1.01482 1.01382 1.01238 1.01059 1.00859 1.00658 1.00476 1.00324 1.00208 1.00126 1.00072 1.00038 1.00019 1.00009 1.00004 1.00002 1.00001 1 1 1 1 0.999999 0.999997 0.999993 0.999985 0.99997 0.999942 0.999892 0.999812 0.999688 0.999505 0.999252 0.998918 0.998499 0.997997 0.997421 0.996785 0.996108 0.995409 0.994705 0.994009 0.993331 0.992674 0.992041 0.991429 0.990836 0.99026 0.989696 0.989145 0.988602 0.988068 0.987541 0.987019 0.986503 0.98599 0.985482 0.984976 0.984472 0.983969 0.983468 0.982967 0.982466 0.981964 0.981461 0.980957 0.980451 0.979942 0.979432 0.978918 0.978401 0.977881 0.977358 0.97683 0.976299 0.975764 0.975224 0.97468 0.974132 0.97358 0.97358 
1.01728 1.01727 1.01727 1.01727 1.01726 1.01726 1.01725 1.01725 1.01724 1.01723 1.01722 1.01721 1.0172 1.01718 1.01717 1.01715 1.01713 1.01711 1.01709 1.01707 1.01704 1.01701 1.01698 1.01695 1.01692 1.01688 1.01684 1.01679 1.01675 1.0167 1.01664 1.01658 1.01651 1.01644 1.01636 1.01628 1.01619 1.01609 1.016 1.01592 1.01586 1.01583 1.01583 1.01587 1.01593 1.01596 1.01589 1.0156 1.01499 1.01396 1.01249 1.01067 1.00865 1.00662 1.00478 1.00325 1.00209 1.00126 1.00072 1.00039 1.0002 1.00009 1.00004 1.00002 1.00001 1 1 1 1 0.999999 0.999998 0.999995 0.999989 0.999978 0.999955 0.999917 0.999851 0.999749 0.999595 0.999377 0.999083 0.998707 0.998247 0.997708 0.997103 0.996448 0.995762 0.995061 0.994362 0.993675 0.993007 0.992362 0.991739 0.991137 0.990552 0.989983 0.989425 0.988879 0.988341 0.98781 0.987286 0.986768 0.986254 0.985743 0.985236 0.984732 0.984229 0.983727 0.983226 0.982726 0.982225 0.981723 0.98122 0.980716 0.98021 0.979702 0.979191 0.978677 0.97816 0.97764 0.977116 0.976589 0.976058 0.975522 0.974983 0.974439 0.973892 0.973892 
1.01725 1.01724 1.01724 1.01724 1.01723 1.01723 1.01722 1.01722 1.01721 1.0172 1.01719 1.01718 1.01717 1.01715 1.01714 1.01712 1.0171 1.01708 1.01706 1.01703 1.01701 1.01698 1.01695 1.01692 1.01688 1.01685 1.01681 1.01677 1.01672 1.01667 1.01662 1.01657 1.01651 1.01644 1.01637 1.0163 1.01622 1.01615 1.01607 1.01602 1.01598 1.01598 1.01601 1.01608 1.01615 1.01619 1.01611 1.01581 1.01517 1.01411 1.01262 1.01076 1.00871 1.00667 1.00481 1.00327 1.0021 1.00126 1.00072 1.00039 1.0002 1.00009 1.00004 1.00002 1.00001 1 1 1 1 0.999999 0.999999 0.999997 0.999992 0.999984 0.999967 0.999936 0.999885 0.999801 0.999674 0.999489 0.999235 0.998903 0.998487 0.997991 0.997423 0.996797 0.996128 0.995437 0.994738 0.994045 0.993368 0.992711 0.992076 0.991462 0.990868 0.990291 0.989727 0.989175 0.988633 0.988099 0.987572 0.987051 0.986535 0.986023 0.985515 0.985009 0.984506 0.984004 0.983503 0.983003 0.982503 0.982002 0.981501 0.980998 0.980494 0.979988 0.979479 0.978968 0.978455 0.977938 0.977418 0.976894 0.976367 0.975836 0.975301 0.974762 0.974219 0.974219 
1.01722 1.01721 1.01721 1.0172 1.0172 1.0172 1.01719 1.01719 1.01718 1.01717 1.01716 1.01715 1.01713 1.01712 1.0171 1.01709 1.01707 1.01705 1.01703 1.017 1.01698 1.01695 1.01692 1.01689 1.01685 1.01682 1.01678 1.01674 1.0167 1.01666 1.01662 1.01657 1.01653 1.01648 1.01643 1.01637 1.01632 1.01627 1.01622 1.0162 1.0162 1.01623 1.01629 1.01638 1.01646 1.0165 1.0164 1.01608 1.0154 1.0143 1.01277 1.01087 1.00879 1.00672 1.00484 1.00329 1.00211 1.00127 1.00072 1.00039 1.0002 1.00009 1.00004 1.00002 1.00001 1 1 1 1 1 0.999999 0.999998 0.999995 0.999988 0.999976 0.999953 0.999912 0.999846 0.999742 0.999589 0.999373 0.999084 0.998715 0.998265 0.997739 0.997147 0.996505 0.995828 0.995136 0.994441 0.993756 0.993088 0.992441 0.991815 0.99121 0.990623 0.990052 0.989494 0.988947 0.988408 0.987878 0.987354 0.986835 0.986321 0.985812 0.985305 0.984801 0.984298 0.983798 0.983298 0.982798 0.982298 0.981798 0.981297 0.980795 0.980291 0.979785 0.979277 0.978766 0.978252 0.977736 0.977216 0.976693 0.976166 0.975635 0.9751 0.974562 0.974562 