# vtk DataFile Version 3.0
LBM simulation at step 260
ASCII
DATASET STRUCTURED_POINTS
DIMENSIONS 128 128 1
ORIGIN 0 0 0
SPACING 1 1 1
POINT_DATA 16384
SCALARS density float
LOOKUP_TABLE default
0.949559 1.01481 1.01644 1.01312 1.01333 1.01353 1.01341 1.01335 1.01334 1.01335 1.01337 1.0134 1.01343 1.01347 1.0135 1.01352 1.01354 1.01354 1.01353 1.0135 1.01345 1.01338 1.01329 1.01318 1.01304 1.01289 1.01273 1.01254 1.01235 1.01214 1.01192 1.0117 1.01147 1.01124 1.011 1.01076 1.01051 1.01026 1.01 1.00974 1.00947 1.00918 1.00888 1.00857 1.00823 1.00788 1.0075 1.00709 1.00665 1.00618 1.00567 1.00512 1.00452 1.00387 1.00317 1.0024 1.00157 1.00067 0.999697 0.998646 0.997517 0.996309 0.995025 0.99367 0.992251 0.990778 0.989263 0.98772 0.986163 0.984607 0.983067 0.981554 0.98008 0.978651 0.977274 0.975952 0.974685 0.973471 0.972309 0.971194 0.970122 0.969089 0.96809 0.967123 0.966183 0.965268 0.964375 0.963502 0.962647 0.961809 0.960985 0.960174 0.959374 0.958581 0.957794 0.957009 0.956223 0.955432 0.954633 0.953824 0.953003 0.952167 0.951318 0.950457 0.949587 0.948713 0.947839 0.946971 0.946115 0.945273 0.94445 0.943646 0.94286 0.942092 0.941338 0.940594 0.939856 0.939118 0.938373 0.93762 0.936835 0.935999 0.935147 0.93458 0.932579 0.930975 0.947048 0.947048 
1.0169 1.01537 1.01154 1.01276 1.01359 1.01352 1.01339 1.01334 1.01333 1.01334 1.01335 1.01338 1.01341 1.01344 1.01347 1.01349 1.01351 1.01351 1.0135 1.01347 1.01342 1.01335 1.01327 1.01316 1.01303 1.01288 1.01271 1.01253 1.01234 1.01213 1.01192 1.0117 1.01147 1.01123 1.01099 1.01075 1.0105 1.01025 1.00999 1.00973 1.00945 1.00917 1.00886 1.00855 1.00821 1.00785 1.00747 1.00706 1.00662 1.00614 1.00562 1.00507 1.00447 1.00381 1.0031 1.00234 1.00151 1.00061 0.999633 0.998586 0.997463 0.996263 0.99499 0.993648 0.992243 0.990784 0.989284 0.987755 0.98621 0.984665 0.983132 0.981625 0.980153 0.978726 0.977347 0.976022 0.974751 0.973533 0.972366 0.971246 0.97017 0.969134 0.968132 0.967162 0.966221 0.965304 0.96441 0.963536 0.962681 0.961841 0.961017 0.960204 0.959402 0.958607 0.957818 0.95703 0.95624 0.955446 0.954643 0.95383 0.953005 0.952166 0.951313 0.95045 0.949579 0.948705 0.947832 0.946965 0.94611 0.945269 0.944446 0.943641 0.942853 0.942081 0.941322 0.94057 0.939822 0.939071 0.938313 0.937545 0.936754 0.935881 0.934843 0.933999 0.934367 0.935099 0.932868 0.932868 
1.02414 1.01223 1.01159 1.01406 1.01367 1.01327 1.01331 1.01335 1.01334 1.01333 1.01335 1.01338 1.01341 1.01344 1.01347 1.01349 1.01351 1.01351 1.0135 1.01348 1.01343 1.01337 1.01328 1.01318 1.01305 1.01291 1.01275 1.01257 1.01238 1.01217 1.01196 1.01174 1.01151 1.01128 1.01104 1.01079 1.01055 1.01029 1.01003 1.00977 1.00949 1.0092 1.0089 1.00858 1.00824 1.00787 1.00749 1.00707 1.00662 1.00614 1.00562 1.00506 1.00445 1.00379 1.00307 1.0023 1.00147 1.00057 0.999594 0.99855 0.997434 0.996244 0.994983 0.993655 0.992266 0.990825 0.989342 0.98783 0.986301 0.984768 0.983246 0.981746 0.980279 0.978852 0.977473 0.976144 0.974869 0.973645 0.972471 0.971346 0.970263 0.969221 0.968215 0.967241 0.966295 0.965376 0.964479 0.963603 0.962746 0.961905 0.961078 0.960264 0.95946 0.958663 0.957871 0.957081 0.956288 0.955491 0.954685 0.953868 0.953039 0.952196 0.951341 0.950476 0.949603 0.948727 0.947854 0.946989 0.946135 0.945296 0.944474 0.94367 0.942883 0.942111 0.941349 0.940594 0.939841 0.939086 0.93832 0.937525 0.936703 0.93591 0.935124 0.934097 0.933335 0.931314 0.924827 0.924827 
1.00904 1.01381 1.0158 1.01349 1.01286 1.01337 1.01346 1.01335 1.01332 1.01334 1.01337 1.01339 1.01343 1.01346 1.01349 1.01352 1.01354 1.01355 1.01354 1.01352 1.01348 1.01342 1.01334 1.01324 1.01312 1.01298 1.01282 1.01264 1.01246 1.01225 1.01204 1.01182 1.01159 1.01136 1.01112 1.01088 1.01063 1.01038 1.01012 1.00985 1.00957 1.00928 1.00898 1.00865 1.00831 1.00794 1.00755 1.00713 1.00667 1.00618 1.00565 1.00508 1.00446 1.00379 1.00307 1.00229 1.00145 1.00054 0.999573 0.998531 0.99742 0.996239 0.99499 0.993678 0.992307 0.990887 0.989425 0.987933 0.986424 0.984909 0.983401 0.981912 0.980451 0.979028 0.977649 0.976318 0.975037 0.973806 0.972625 0.971492 0.970402 0.969352 0.968339 0.967359 0.966408 0.965484 0.964583 0.963703 0.962843 0.961999 0.96117 0.960354 0.959547 0.958748 0.957954 0.95716 0.956365 0.955564 0.954755 0.953936 0.953103 0.952258 0.9514 0.950533 0.949659 0.948783 0.94791 0.947046 0.946194 0.945358 0.944539 0.943739 0.942954 0.942183 0.941423 0.940669 0.939916 0.939157 0.938391 0.937616 0.936799 0.935917 0.935101 0.934282 0.933082 0.930951 0.926841 0.926841 
1.01322 1.01434 1.01346 1.01303 1.0136 1.01352 1.01331 1.01332 1.01337 1.01339 1.0134 1.01343 1.01347 1.01351 1.01355 1.01358 1.0136 1.01362 1.01362 1.0136 1.01356 1.01351 1.01343 1.01334 1.01322 1.01308 1.01293 1.01276 1.01257 1.01237 1.01216 1.01195 1.01172 1.01149 1.01125 1.01101 1.01076 1.01051 1.01024 1.00998 1.0097 1.0094 1.00909 1.00877 1.00842 1.00805 1.00765 1.00722 1.00675 1.00625 1.00571 1.00513 1.0045 1.00382 1.00308 1.00229 1.00145 1.00053 0.999559 0.998518 0.997411 0.996239 0.995003 0.993708 0.992358 0.990961 0.989524 0.988057 0.986572 0.985079 0.983589 0.982115 0.980664 0.979247 0.977869 0.976536 0.975251 0.974013 0.972824 0.971681 0.970582 0.969524 0.968502 0.967514 0.966557 0.965627 0.964721 0.963837 0.962972 0.962125 0.961293 0.960473 0.959664 0.958862 0.958064 0.957268 0.95647 0.955667 0.954855 0.954032 0.953197 0.952349 0.95149 0.950621 0.949747 0.948871 0.948 0.947139 0.94629 0.945458 0.944644 0.943848 0.943068 0.942302 0.941546 0.940796 0.940049 0.939297 0.938531 0.937752 0.936969 0.936148 0.935268 0.934275 0.932772 0.931473 0.930467 0.930467 
1.01415 1.01352 1.0131 1.01374 1.01362 1.01329 1.01336 1.01343 1.01342 1.01342 1.01346 1.0135 1.01354 1.01359 1.01363 1.01367 1.0137 1.01372 1.01372 1.01371 1.01368 1.01363 1.01356 1.01347 1.01335 1.01322 1.01307 1.0129 1.01272 1.01252 1.01232 1.0121 1.01188 1.01165 1.01141 1.01117 1.01092 1.01067 1.0104 1.01013 1.00985 1.00956 1.00924 1.00891 1.00856 1.00818 1.00777 1.00733 1.00685 1.00634 1.00579 1.00519 1.00455 1.00385 1.0031 1.0023 1.00144 1.00052 0.999543 0.998502 0.997399 0.996236 0.995014 0.993738 0.992411 0.991039 0.989631 0.988193 0.986736 0.985268 0.983802 0.982345 0.980908 0.979499 0.978125 0.976792 0.975502 0.974258 0.973061 0.971909 0.9708 0.969732 0.968701 0.967705 0.96674 0.965803 0.964892 0.964002 0.963133 0.962282 0.961445 0.960622 0.95981 0.959004 0.958204 0.957405 0.956604 0.955798 0.954983 0.954158 0.953321 0.952471 0.95161 0.950741 0.949867 0.948993 0.948125 0.947266 0.946423 0.945596 0.944788 0.943999 0.943226 0.942468 0.94172 0.940978 0.940237 0.939496 0.938749 0.937983 0.937199 0.936401 0.935539 0.934628 0.933499 0.932434 0.931868 0.931868 
1.01273 1.01348 1.01369 1.01357 1.01334 1.01344 1.0135 1.01345 1.01346 1.01351 1.01355 1.01359 1.01364 1.01369 1.01374 1.01378 1.01382 1.01385 1.01386 1.01385 1.01382 1.01378 1.01371 1.01362 1.01351 1.01339 1.01324 1.01307 1.01289 1.0127 1.0125 1.01228 1.01206 1.01183 1.0116 1.01136 1.01111 1.01085 1.01059 1.01032 1.01003 1.00973 1.00941 1.00907 1.00871 1.00832 1.0079 1.00745 1.00696 1.00644 1.00587 1.00525 1.00459 1.00388 1.00312 1.0023 1.00143 1.0005 0.999517 0.998474 0.997375 0.996221 0.995015 0.993758 0.992456 0.991114 0.989736 0.988331 0.986905 0.985467 0.984026 0.982591 0.981171 0.979773 0.978405 0.977073 0.975782 0.974533 0.973328 0.972167 0.971049 0.969971 0.968932 0.967927 0.966955 0.966011 0.965093 0.964198 0.963324 0.962468 0.961628 0.960801 0.959985 0.959176 0.958373 0.957571 0.956767 0.955958 0.955141 0.954313 0.953474 0.952623 0.951762 0.950892 0.950019 0.949148 0.948283 0.947429 0.946591 0.945772 0.944972 0.944191 0.943428 0.942679 0.941941 0.941211 0.940483 0.939754 0.939022 0.938282 0.937526 0.936753 0.935917 0.935053 0.934261 0.933414 0.932693 0.932693 
1.01297 1.01351 1.01355 1.01343 1.0135 1.01356 1.0135 1.01352 1.01357 1.01361 1.01365 1.01371 1.01377 1.01382 1.01388 1.01393 1.01397 1.014 1.01402 1.01402 1.01399 1.01395 1.01389 1.01381 1.0137 1.01357 1.01343 1.01327 1.01309 1.0129 1.0127 1.01249 1.01226 1.01204 1.0118 1.01156 1.01131 1.01106 1.01079 1.01052 1.01023 1.00992 1.0096 1.00925 1.00888 1.00848 1.00804 1.00758 1.00707 1.00653 1.00594 1.00531 1.00463 1.0039 1.00312 1.00229 1.0014 1.00046 0.999471 0.998427 0.997332 0.996188 0.994997 0.993762 0.992487 0.991174 0.98983 0.988459 0.987068 0.985662 0.984251 0.98284 0.98144 0.980057 0.978698 0.97737 0.976078 0.974826 0.973615 0.972447 0.971321 0.970235 0.969187 0.968175 0.967196 0.966245 0.965322 0.964422 0.963543 0.962683 0.961839 0.961008 0.960189 0.959377 0.95857 0.957765 0.956959 0.956147 0.955328 0.954498 0.953658 0.952805 0.951944 0.951075 0.950204 0.949336 0.948475 0.947627 0.946796 0.945985 0.945194 0.944423 0.943671 0.942933 0.942208 0.94149 0.940778 0.940068 0.939354 0.938637 0.937908 0.937171 0.936423 0.935643 0.934922 0.934225 0.933536 0.933536 
1.01318 1.0135 1.01349 1.01355 1.0136 1.01357 1.01359 1.01365 1.01369 1.01373 1.01379 1.01386 1.01392 1.01399 1.01405 1.0141 1.01415 1.01419 1.0142 1.01421 1.01419 1.01415 1.01409 1.01401 1.0139 1.01378 1.01363 1.01347 1.0133 1.01311 1.01291 1.0127 1.01248 1.01226 1.01202 1.01178 1.01153 1.01127 1.011 1.01072 1.01043 1.01011 1.00978 1.00942 1.00904 1.00862 1.00818 1.00769 1.00717 1.00661 1.006 1.00535 1.00465 1.0039 1.0031 1.00225 1.00135 1.0004 0.999398 0.998353 0.997262 0.996128 0.994953 0.993741 0.992493 0.991212 0.989903 0.988569 0.987214 0.985843 0.984463 0.983081 0.981703 0.980338 0.978991 0.97767 0.976381 0.975128 0.973914 0.972741 0.971608 0.970516 0.969461 0.968443 0.967458 0.966502 0.965574 0.96467 0.963787 0.962924 0.962076 0.961242 0.960419 0.959605 0.958795 0.957987 0.957178 0.956364 0.955543 0.954712 0.95387 0.953018 0.952156 0.951289 0.95042 0.949556 0.9487 0.947859 0.947036 0.946234 0.945453 0.944694 0.943953 0.943228 0.942517 0.941814 0.941119 0.940427 0.939736 0.939044 0.938349 0.937645 0.936953 0.936264 0.935578 0.934956 0.934374 0.934374 
1.01313 1.01356 1.0136 1.01364 1.01365 1.01368 1.01374 1.01378 1.01382 1.01389 1.01396 1.01403 1.0141 1.01417 1.01424 1.0143 1.01435 1.01439 1.01441 1.01442 1.0144 1.01436 1.0143 1.01422 1.01411 1.01399 1.01385 1.01369 1.01352 1.01333 1.01313 1.01292 1.01271 1.01248 1.01225 1.01201 1.01175 1.01149 1.01122 1.01093 1.01063 1.01031 1.00996 1.00959 1.00919 1.00876 1.00829 1.00779 1.00725 1.00666 1.00603 1.00536 1.00463 1.00386 1.00304 1.00217 1.00126 1.0003 0.999291 0.998244 0.997158 0.996035 0.994877 0.993687 0.992468 0.99122 0.989947 0.98865 0.987333 0.985999 0.984653 0.983301 0.981949 0.980604 0.979273 0.977962 0.976679 0.975428 0.974214 0.973038 0.971902 0.970805 0.969746 0.968723 0.967734 0.966776 0.965844 0.964938 0.964053 0.963186 0.962337 0.9615 0.960675 0.959858 0.959046 0.958236 0.957425 0.956609 0.955786 0.954954 0.954111 0.953259 0.952398 0.951533 0.950668 0.949807 0.948958 0.948124 0.94731 0.946517 0.945748 0.945 0.944272 0.943561 0.942864 0.942178 0.9415 0.940828 0.940159 0.939492 0.93883 0.938167 0.937511 0.936876 0.936247 0.93566 0.935127 0.935127 
1.01325 1.01367 1.0137 1.01373 1.01377 1.01383 1.01388 1.01393 1.014 1.01407 1.01415 1.01423 1.01431 1.01439 1.01446 1.01453 1.01458 1.01462 1.01464 1.01464 1.01463 1.01459 1.01452 1.01444 1.01434 1.01421 1.01407 1.01391 1.01374 1.01356 1.01336 1.01315 1.01294 1.01271 1.01248 1.01223 1.01198 1.01171 1.01143 1.01114 1.01082 1.01049 1.01013 1.00974 1.00932 1.00887 1.00839 1.00786 1.0073 1.00669 1.00603 1.00533 1.00458 1.00379 1.00295 1.00206 1.00113 1.00016 0.999146 0.998098 0.997017 0.995905 0.994764 0.993597 0.992406 0.991191 0.989954 0.988695 0.987417 0.986121 0.984811 0.983491 0.982167 0.980845 0.979532 0.978235 0.976961 0.975716 0.974504 0.973328 0.972191 0.971093 0.970033 0.969009 0.968018 0.967059 0.966127 0.965219 0.964334 0.963467 0.962616 0.961779 0.960952 0.960134 0.95932 0.958509 0.957696 0.956879 0.956055 0.955222 0.954379 0.953528 0.952669 0.951806 0.950944 0.950089 0.949246 0.94842 0.947615 0.946833 0.946075 0.945339 0.944625 0.943928 0.943246 0.942577 0.941917 0.941264 0.940618 0.939976 0.939341 0.938714 0.938093 0.93749 0.936909 0.936351 0.935834 0.935834 
1.01341 1.01379 1.01383 1.01388 1.01393 1.01399 1.01405 1.01412 1.0142 1.01428 1.01437 1.01446 1.01454 1.01463 1.0147 1.01477 1.01482 1.01486 1.01488 1.01488 1.01486 1.01482 1.01476 1.01467 1.01456 1.01444 1.0143 1.01414 1.01397 1.01378 1.01359 1.01338 1.01317 1.01294 1.01271 1.01246 1.0122 1.01193 1.01164 1.01133 1.01101 1.01066 1.01028 1.00987 1.00944 1.00896 1.00845 1.0079 1.00731 1.00668 1.00599 1.00527 1.00449 1.00368 1.00281 1.00191 1.00096 0.999978 0.99896 0.997912 0.996836 0.995735 0.994612 0.993468 0.992304 0.991122 0.98992 0.988699 0.987459 0.986201 0.984928 0.983641 0.982347 0.98105 0.979758 0.978478 0.977216 0.97598 0.974774 0.973602 0.972468 0.971372 0.970313 0.96929 0.968302 0.967344 0.966414 0.965508 0.964624 0.963759 0.96291 0.962073 0.961247 0.960428 0.959615 0.958803 0.957989 0.957172 0.956348 0.955515 0.954673 0.953823 0.952966 0.952106 0.951249 0.9504 0.949564 0.948746 0.947951 0.947179 0.946433 0.94571 0.945009 0.944327 0.94366 0.943007 0.942365 0.941732 0.941107 0.94049 0.939879 0.939279 0.938691 0.938115 0.937561 0.93703 0.936526 0.936526 
1.01359 1.01396 1.01401 1.01406 1.01412 1.01418 1.01426 1.01434 1.01443 1.01452 1.01462 1.01471 1.0148 1.01489 1.01496 1.01503 1.01508 1.01512 1.01514 1.01513 1.01511 1.01506 1.01499 1.0149 1.01479 1.01467 1.01452 1.01437 1.01419 1.01401 1.01382 1.01361 1.0134 1.01317 1.01293 1.01268 1.01242 1.01214 1.01184 1.01152 1.01117 1.01081 1.01041 1.00998 1.00952 1.00902 1.00849 1.00791 1.00729 1.00663 1.00592 1.00516 1.00436 1.00352 1.00264 1.00171 1.00075 0.999757 0.998734 0.997685 0.996615 0.995525 0.994419 0.993298 0.992161 0.99101 0.989842 0.988658 0.987456 0.986235 0.984998 0.983745 0.982482 0.981212 0.979944 0.978682 0.977436 0.976212 0.975015 0.973851 0.972722 0.971631 0.970577 0.96956 0.968576 0.967623 0.966698 0.965797 0.964918 0.964057 0.963211 0.962377 0.961554 0.960737 0.959925 0.959114 0.958301 0.957485 0.956661 0.95583 0.954989 0.954141 0.953287 0.952431 0.951579 0.950736 0.949908 0.949099 0.948313 0.947553 0.946819 0.946109 0.945421 0.944753 0.944102 0.943466 0.942841 0.942226 0.941621 0.941026 0.940439 0.939862 0.939298 0.938748 0.938214 0.937702 0.937211 0.937211 
1.0138 1.01417 1.01421 1.01427 1.01434 1.01441 1.0145 1.01459 1.01469 1.01479 1.01489 1.01498 1.01508 1.01517 1.01524 1.01531 1.01535 1.01539 1.0154 1.01539 1.01536 1.01531 1.01523 1.01514 1.01503 1.0149 1.01475 1.0146 1.01442 1.01424 1.01405 1.01385 1.01363 1.0134 1.01316 1.0129 1.01263 1.01234 1.01202 1.01169 1.01133 1.01094 1.01052 1.01007 1.00958 1.00906 1.00849 1.00788 1.00723 1.00654 1.0058 1.00502 1.00419 1.00333 1.00242 1.00148 1.0005 0.999497 0.998469 0.997421 0.996356 0.995278 0.994188 0.993088 0.991977 0.990855 0.98972 0.988571 0.987404 0.98622 0.985018 0.983799 0.982567 0.981325 0.980081 0.978841 0.977613 0.976403 0.975219 0.974065 0.972946 0.971863 0.970817 0.969808 0.968832 0.967888 0.966971 0.966078 0.965207 0.964353 0.963513 0.962686 0.961867 0.961054 0.960246 0.959437 0.958627 0.957813 0.956992 0.956162 0.955324 0.954479 0.953629 0.952778 0.951932 0.951096 0.950276 0.949476 0.948701 0.947952 0.94723 0.946533 0.945859 0.945205 0.944569 0.943948 0.94334 0.942744 0.942157 0.941581 0.941015 0.940459 0.939916 0.939386 0.938871 0.938373 0.937894 0.937894 
1.01406 1.01441 1.01446 1.01452 1.01459 1.01468 1.01477 1.01487 1.01497 1.01507 1.01518 1.01528 1.01537 1.01546 1.01553 1.01559 1.01563 1.01566 1.01566 1.01565 1.01561 1.01555 1.01547 1.01538 1.01526 1.01513 1.01499 1.01483 1.01466 1.01448 1.01428 1.01408 1.01386 1.01363 1.01338 1.01312 1.01283 1.01253 1.0122 1.01185 1.01146 1.01105 1.01061 1.01013 1.00961 1.00906 1.00846 1.00782 1.00714 1.00642 1.00565 1.00484 1.00398 1.00309 1.00216 1.0012 1.00022 0.999202 0.99817 0.997123 0.996064 0.994997 0.993922 0.992842 0.991755 0.99066 0.989555 0.988437 0.987304 0.986154 0.984986 0.9838 0.982598 0.981385 0.980167 0.978949 0.97774 0.976548 0.975378 0.974238 0.97313 0.972059 0.971025 0.970026 0.969062 0.968129 0.967224 0.966343 0.965483 0.964639 0.96381 0.962991 0.96218 0.961374 0.960571 0.959768 0.958962 0.958151 0.957334 0.956508 0.955674 0.954833 0.953988 0.953143 0.952304 0.951475 0.950664 0.949874 0.949109 0.948372 0.947662 0.946978 0.946317 0.945678 0.945057 0.944451 0.943859 0.943279 0.942711 0.942152 0.941605 0.941068 0.940542 0.940029 0.93953 0.939044 0.938575 0.938575 
1.01436 1.01468 1.01474 1.0148 1.01488 1.01497 1.01507 1.01517 1.01528 1.01538 1.01549 1.01559 1.01568 1.01576 1.01583 1.01588 1.01592 1.01594 1.01593 1.01591 1.01587 1.0158 1.01572 1.01562 1.0155 1.01537 1.01522 1.01507 1.01489 1.01471 1.01452 1.01431 1.01409 1.01386 1.0136 1.01333 1.01303 1.01271 1.01236 1.01199 1.01158 1.01115 1.01067 1.01017 1.00962 1.00903 1.0084 1.00773 1.00702 1.00626 1.00546 1.00462 1.00374 1.00283 1.00188 1.0009 0.999899 0.998879 0.997843 0.996797 0.995744 0.994686 0.993626 0.992564 0.991498 0.990428 0.98935 0.988261 0.987158 0.986039 0.984902 0.983747 0.982575 0.98139 0.980198 0.979003 0.977815 0.976641 0.975489 0.974363 0.973271 0.972213 0.971193 0.970208 0.969259 0.96834 0.96745 0.966584 0.965738 0.964908 0.964091 0.963284 0.962484 0.961688 0.960894 0.960098 0.959299 0.958495 0.957683 0.956862 0.956034 0.955198 0.954359 0.953521 0.952689 0.951869 0.951067 0.950288 0.949535 0.948809 0.948111 0.94744 0.946793 0.946168 0.945561 0.94497 0.944394 0.94383 0.943277 0.942736 0.942205 0.941685 0.941175 0.940677 0.94019 0.939715 0.939254 0.939254 
1.01469 1.015 1.01505 1.01512 1.0152 1.01529 1.01539 1.0155 1.0156 1.01571 1.01581 1.01591 1.016 1.01607 1.01614 1.01618 1.01621 1.01622 1.01621 1.01618 1.01613 1.01606 1.01597 1.01587 1.01575 1.01561 1.01547 1.01531 1.01514 1.01496 1.01476 1.01455 1.01433 1.01408 1.01382 1.01353 1.01322 1.01288 1.01252 1.01212 1.01169 1.01122 1.01072 1.01018 1.0096 1.00898 1.00832 1.00762 1.00687 1.00608 1.00525 1.00438 1.00347 1.00253 1.00157 1.00057 0.99956 0.998532 0.997493 0.996448 0.995401 0.994352 0.993305 0.992258 0.991211 0.990162 0.989108 0.988045 0.986969 0.985878 0.984769 0.983643 0.982499 0.98134 0.980173 0.979002 0.977835 0.976681 0.975546 0.974438 0.973361 0.97232 0.971315 0.970347 0.969414 0.968514 0.967641 0.966793 0.965964 0.965152 0.964351 0.963559 0.962773 0.96199 0.961207 0.960422 0.959632 0.958836 0.958032 0.957218 0.956397 0.955569 0.954737 0.953907 0.953084 0.952273 0.951482 0.950713 0.949971 0.949258 0.948573 0.947915 0.947281 0.946669 0.946077 0.9455 0.944939 0.94439 0.943853 0.943327 0.942812 0.942306 0.941811 0.941325 0.94085 0.940385 0.93993 0.93993 
1.01506 1.01535 1.0154 1.01547 1.01555 1.01564 1.01574 1.01584 1.01595 1.01605 1.01615 1.01624 1.01632 1.01639 1.01644 1.01648 1.0165 1.0165 1.01649 1.01645 1.01639 1.01632 1.01623 1.01612 1.016 1.01586 1.01572 1.01556 1.01539 1.0152 1.01501 1.01479 1.01456 1.01431 1.01403 1.01373 1.0134 1.01305 1.01266 1.01223 1.01177 1.01128 1.01075 1.01017 1.00956 1.00891 1.00821 1.00747 1.00669 1.00587 1.00501 1.00411 1.00318 1.00222 1.00123 1.00023 0.999204 0.998169 0.997128 0.996085 0.995042 0.994001 0.992965 0.991932 0.990901 0.989869 0.988835 0.987793 0.986741 0.985674 0.98459 0.983489 0.98237 0.981237 0.980093 0.978945 0.977799 0.976665 0.975549 0.974458 0.973399 0.972375 0.971388 0.970438 0.969524 0.968643 0.967791 0.966963 0.966155 0.965362 0.964581 0.963808 0.963039 0.962272 0.961504 0.960732 0.959954 0.959168 0.958374 0.95757 0.956757 0.955938 0.955115 0.954295 0.953481 0.952681 0.951901 0.951144 0.950414 0.949714 0.949041 0.948397 0.947776 0.947178 0.9466 0.946037 0.94549 0.944956 0.944433 0.943921 0.94342 0.942928 0.942445 0.941971 0.941506 0.941048 0.9406 0.9406 
1.01546 1.01573 1.01578 1.01585 1.01593 1.01602 1.01611 1.01621 1.01631 1.01641 1.0165 1.01658 1.01665 1.01671 1.01676 1.01678 1.0168 1.01679 1.01676 1.01672 1.01666 1.01658 1.01649 1.01638 1.01626 1.01613 1.01598 1.01582 1.01565 1.01546 1.01526 1.01504 1.0148 1.01453 1.01424 1.01393 1.01358 1.0132 1.01278 1.01233 1.01184 1.01132 1.01075 1.01015 1.0095 1.00881 1.00808 1.00731 1.0065 1.00564 1.00476 1.00383 1.00288 1.00189 1.00089 0.999871 0.998838 0.997798 0.996755 0.995713 0.994674 0.99364 0.992612 0.99159 0.990571 0.989554 0.988536 0.987511 0.986478 0.985431 0.984369 0.98329 0.982194 0.981083 0.979961 0.978834 0.977709 0.976593 0.975496 0.974423 0.973382 0.972376 0.971407 0.970477 0.969584 0.968724 0.967894 0.967088 0.966303 0.965534 0.964775 0.964023 0.963275 0.962527 0.961776 0.96102 0.960257 0.959485 0.958703 0.95791 0.957108 0.9563 0.955488 0.954678 0.953875 0.953087 0.952318 0.951574 0.950857 0.95017 0.949511 0.94888 0.948273 0.947689 0.947124 0.946575 0.946042 0.945521 0.945012 0.944514 0.944025 0.943545 0.943074 0.94261 0.942152 0.941702 0.941258 0.941258 
1.01589 1.01614 1.01619 1.01625 1.01633 1.01641 1.0165 1.01659 1.01668 1.01677 1.01685 1.01692 1.01698 1.01703 1.01707 1.01709 1.01709 1.01708 1.01705 1.017 1.01694 1.01686 1.01676 1.01665 1.01653 1.0164 1.01625 1.01609 1.01591 1.01572 1.01551 1.01528 1.01503 1.01475 1.01445 1.01411 1.01374 1.01334 1.0129 1.01242 1.0119 1.01134 1.01075 1.01011 1.00942 1.0087 1.00794 1.00713 1.00629 1.0054 1.00449 1.00354 1.00256 1.00156 1.00054 0.999511 0.99847 0.997425 0.99638 0.995339 0.994303 0.993274 0.992252 0.991238 0.990229 0.989223 0.988216 0.987205 0.986186 0.985156 0.984111 0.98305 0.981973 0.980881 0.979779 0.978671 0.977565 0.976468 0.975389 0.974334 0.97331 0.972322 0.971373 0.970463 0.96959 0.968753 0.967946 0.967165 0.966405 0.965661 0.964927 0.9642 0.963475 0.962749 0.962018 0.961281 0.960536 0.959779 0.959012 0.958233 0.957444 0.956647 0.955848 0.95505 0.95426 0.953484 0.952729 0.951998 0.951295 0.950621 0.949976 0.949359 0.948766 0.948195 0.947644 0.947109 0.946588 0.946081 0.945584 0.945098 0.944621 0.944152 0.943691 0.943235 0.942785 0.94234 0.9419 0.9419 
1.01634 1.01658 1.01662 1.01668 1.01675 1.01682 1.0169 1.01698 1.01706 1.01714 1.0172 1.01726 1.01731 1.01735 1.01738 1.01739 1.01739 1.01737 1.01733 1.01728 1.01722 1.01714 1.01704 1.01693 1.01681 1.01668 1.01653 1.01637 1.01618 1.01599 1.01577 1.01553 1.01526 1.01497 1.01465 1.01429 1.0139 1.01347 1.013 1.01249 1.01194 1.01135 1.01072 1.01005 1.00933 1.00858 1.00778 1.00694 1.00607 1.00516 1.00421 1.00324 1.00224 1.00123 1.0002 0.999154 0.998107 0.997058 0.996011 0.994969 0.993935 0.992909 0.991892 0.990882 0.989879 0.98888 0.987881 0.986879 0.985871 0.984852 0.98382 0.982774 0.981712 0.980637 0.979551 0.978461 0.977371 0.976291 0.975229 0.974191 0.973184 0.972214 0.971284 0.970394 0.969543 0.968729 0.967946 0.967191 0.966458 0.96574 0.965034 0.964333 0.963633 0.962932 0.962225 0.961509 0.960783 0.960046 0.959295 0.958532 0.957758 0.956976 0.95619 0.955406 0.954629 0.953867 0.953126 0.952409 0.95172 0.951061 0.950431 0.949827 0.949248 0.948691 0.948153 0.947631 0.947124 0.946629 0.946144 0.945669 0.945203 0.944743 0.94429 0.943842 0.943397 0.942956 0.942518 0.942518 
1.01682 1.01704 1.01708 1.01713 1.01719 1.01725 1.01731 1.01738 1.01744 1.0175 1.01756 1.0176 1.01764 1.01767 1.01769 1.01769 1.01768 1.01766 1.01762 1.01757 1.0175 1.01743 1.01733 1.01722 1.0171 1.01697 1.01682 1.01665 1.01646 1.01626 1.01603 1.01578 1.01549 1.01518 1.01484 1.01446 1.01404 1.01358 1.01309 1.01255 1.01197 1.01135 1.01068 1.00998 1.00923 1.00844 1.00761 1.00674 1.00584 1.0049 1.00394 1.00295 1.00193 1.0009 0.999858 0.998808 0.997754 0.996701 0.995652 0.994609 0.993575 0.99255 0.991535 0.990527 0.989527 0.98853 0.987535 0.986539 0.985536 0.984525 0.983502 0.982466 0.981416 0.980353 0.979281 0.978205 0.977131 0.976066 0.975018 0.973996 0.973006 0.972054 0.971142 0.970272 0.969442 0.968651 0.967894 0.967165 0.966459 0.96577 0.965092 0.964419 0.963748 0.963073 0.962391 0.9617 0.960996 0.960279 0.959548 0.958803 0.958045 0.957279 0.956508 0.955739 0.954978 0.954231 0.953505 0.952803 0.952129 0.951485 0.950869 0.95028 0.949715 0.949172 0.948647 0.948138 0.947643 0.947159 0.946685 0.946221 0.945763 0.945312 0.944866 0.944423 0.943983 0.943545 0.943109 0.943109 
1.01731 1.01751 1.01755 1.01759 1.01764 1.01768 1.01773 1.01778 1.01783 1.01787 1.01791 1.01794 1.01797 1.01799 1.01799 1.01799 1.01798 1.01795 1.01791 1.01786 1.0178 1.01772 1.01763 1.01752 1.0174 1.01726 1.01711 1.01694 1.01674 1.01653 1.01629 1.01602 1.01572 1.01539 1.01502 1.01461 1.01417 1.01368 1.01316 1.01259 1.01198 1.01133 1.01063 1.0099 1.00912 1.0083 1.00744 1.00654 1.00561 1.00466 1.00367 1.00266 1.00163 1.00059 0.999535 0.998477 0.997418 0.99636 0.995309 0.994265 0.993228 0.992202 0.991186 0.990177 0.989175 0.988179 0.987184 0.986188 0.985187 0.984179 0.983161 0.982131 0.981088 0.980035 0.978973 0.977908 0.976847 0.975795 0.974761 0.973754 0.972779 0.971843 0.970949 0.970098 0.96929 0.968522 0.96779 0.967088 0.96641 0.965749 0.965101 0.964458 0.963816 0.96317 0.962516 0.961851 0.961172 0.960477 0.959767 0.959041 0.958303 0.957554 0.9568 0.956048 0.955302 0.954571 0.95386 0.953174 0.952516 0.951887 0.951286 0.950712 0.950162 0.949632 0.94912 0.948623 0.948139 0.947666 0.947203 0.946747 0.946298 0.945853 0.945412 0.944974 0.944537 0.944101 0.943665 0.943665 
1.01781 1.018 1.01803 1.01806 1.01809 1.01813 1.01816 1.01819 1.01822 1.01824 1.01826 1.01828 1.01829 1.0183 1.0183 1.01829 1.01827 1.01825 1.01821 1.01816 1.01809 1.01802 1.01793 1.01782 1.0177 1.01756 1.01741 1.01723 1.01702 1.0168 1.01654 1.01625 1.01593 1.01558 1.01519 1.01476 1.01428 1.01377 1.01322 1.01262 1.01198 1.0113 1.01057 1.0098 1.009 1.00815 1.00726 1.00634 1.00539 1.00441 1.00341 1.00239 1.00134 1.00029 0.999231 0.998167 0.997102 0.996041 0.994986 0.993938 0.992899 0.99187 0.990848 0.989835 0.988829 0.987828 0.986829 0.985829 0.984827 0.983818 0.982799 0.981772 0.980733 0.979684 0.978631 0.977574 0.976522 0.975482 0.97446 0.973466 0.972506 0.971585 0.970708 0.969876 0.969089 0.968344 0.967636 0.966961 0.966311 0.965681 0.965063 0.964451 0.96384 0.963223 0.962598 0.961961 0.961308 0.960638 0.959951 0.959247 0.958528 0.957798 0.957063 0.956327 0.955599 0.954885 0.95419 0.953521 0.952878 0.952265 0.951679 0.95112 0.950583 0.950067 0.949567 0.949082 0.948609 0.948146 0.947691 0.947243 0.9468 0.946361 0.945924 0.945489 0.945054 0.944618 0.944182 0.944182 
1.01831 1.0185 1.01852 1.01854 1.01855 1.01857 1.01858 1.01859 1.0186 1.01861 1.01861 1.01861 1.01861 1.01861 1.0186 1.01859 1.01857 1.01854 1.0185 1.01845 1.01839 1.01832 1.01823 1.01813 1.01801 1.01787 1.0177 1.01752 1.0173 1.01706 1.01679 1.01648 1.01614 1.01576 1.01534 1.01489 1.01439 1.01385 1.01326 1.01264 1.01197 1.01126 1.0105 1.00971 1.00887 1.008 1.00709 1.00615 1.00518 1.00418 1.00317 1.00213 1.00108 1.00002 0.998953 0.997882 0.996812 0.995748 0.994687 0.993633 0.992591 0.991554 0.990525 0.989506 0.988492 0.987481 0.986476 0.985468 0.984458 0.983446 0.982422 0.981391 0.980353 0.979307 0.978255 0.977206 0.976161 0.975129 0.974119 0.973136 0.972189 0.971283 0.970423 0.96961 0.968843 0.968121 0.967438 0.966789 0.966168 0.965567 0.96498 0.964399 0.963819 0.963234 0.96264 0.962031 0.961406 0.960762 0.960099 0.959418 0.958721 0.958011 0.957295 0.956578 0.955868 0.955171 0.954493 0.95384 0.953214 0.952616 0.952045 0.9515 0.950977 0.950474 0.949986 0.949512 0.949049 0.948594 0.948146 0.947705 0.947267 0.946832 0.946398 0.945964 0.94553 0.945093 0.944656 0.944656 
1.01882 1.019 1.01901 1.01902 1.01902 1.01901 1.019 1.01899 1.01898 1.01897 1.01896 1.01894 1.01893 1.01892 1.0189 1.01888 1.01886 1.01883 1.0188 1.01875 1.01869 1.01862 1.01854 1.01844 1.01831 1.01817 1.018 1.0178 1.01757 1.01732 1.01702 1.0167 1.01633 1.01593 1.01549 1.015 1.01448 1.01391 1.0133 1.01264 1.01195 1.01121 1.01043 1.00961 1.00875 1.00785 1.00693 1.00597 1.00498 1.00397 1.00294 1.0019 1.00084 0.999776 0.998702 0.997625 0.996553 0.995481 0.994412 0.993356 0.992305 0.991255 0.990222 0.989191 0.988164 0.987141 0.986124 0.98511 0.984084 0.983061 0.982034 0.980994 0.97995 0.978904 0.977852 0.976804 0.975766 0.97474 0.973739 0.972768 0.971833 0.970943 0.970098 0.969303 0.968557 0.967857 0.967199 0.966576 0.965983 0.965413 0.964856 0.964308 0.96376 0.963206 0.962643 0.962064 0.961468 0.960851 0.960214 0.959557 0.958882 0.958194 0.957498 0.9568 0.956108 0.955429 0.954769 0.954132 0.953522 0.952939 0.952384 0.951852 0.951343 0.950851 0.950375 0.94991 0.949455 0.949008 0.948566 0.948129 0.947695 0.947262 0.946829 0.946396 0.945961 0.945524 0.945084 0.945084 
1.01932 1.01951 1.01951 1.0195 1.01948 1.01945 1.01943 1.01939 1.01936 1.01933 1.0193 1.01927 1.01925 1.01922 1.0192 1.01918 1.01915 1.01913 1.01909 1.01905 1.01899 1.01893 1.01884 1.01874 1.01861 1.01846 1.01828 1.01808 1.01784 1.01756 1.01725 1.0169 1.01651 1.01608 1.01561 1.0151 1.01455 1.01396 1.01332 1.01264 1.01191 1.01115 1.01035 1.00951 1.00863 1.00772 1.00677 1.0058 1.0048 1.00379 1.00275 1.0017 1.00064 0.999566 0.998483 0.997406 0.996325 0.995241 0.994171 0.993109 0.992037 0.990988 0.989944 0.988886 0.98785 0.986817 0.985774 0.984747 0.983716 0.982669 0.981631 0.980584 0.979527 0.978474 0.977425 0.976372 0.975339 0.97432 0.973324 0.972365 0.971441 0.970565 0.969738 0.968961 0.968236 0.967558 0.966924 0.966329 0.965764 0.965223 0.964698 0.964181 0.963665 0.963144 0.962612 0.962064 0.961497 0.960909 0.960298 0.959666 0.959015 0.958349 0.957674 0.956996 0.956323 0.955662 0.955018 0.954398 0.953804 0.953236 0.952695 0.952177 0.951679 0.951199 0.950732 0.950276 0.949828 0.949386 0.948949 0.948515 0.948083 0.947651 0.947218 0.946784 0.946348 0.945909 0.945467 0.945467 