# vtk DataFile Version 3.0
LBM simulation at step 60
ASCII
DATASET STRUCTURED_POINTS
DIMENSIONS 256 256 1
ORIGIN 0 0 0
SPACING 1 1 1
POINT_DATA 65536
SCALARS density float
LOOKUP_TABLE default
0.737645 1.08242 1.12912 1.08731 1.07937 1.08831 1.09012 1.08826 1.08756 1.08758 1.08739 1.08706 1.08675 1.0865 1.08623 1.08596 1.08567 1.08539 1.08508 1.08477 1.08442 1.08404 1.08361 1.08315 1.08267 1.08217 1.08161 1.08084 1.07953 1.07716 1.07309 1.06679 1.05806 1.04735 1.0358 1.0249 1.01586 1.00926 1.00496 1.00244 1.00111 1.00047 1.00018 1.00006 1.00002 1.00001 1 1 1 1 1 1 1 1 1 1 1 1 1 1 1 1 1 1 1 1 1 1 1 1 1 1 1 1 1 1 1 1 1 1 1 1 1 1 1 1 1 1 1 1 1 1 1 1 1 1 1 1 1 1 1 1 1 1 1 1 1 1 1 1 1 1 1 1 1 1 1 1 1 1 1 1 1 1 1 1 1 1 1 1 1 1 1 1 1 1 1 1 1 1 1 1 1 1 1 1 1 1 1 1 1 1 1 1 1 1 1 1 1 1 1 1 1 1 1 1 1 1 1 1 1 1 1 1 1 1 1 1 1 1 1 1 1 1 1 1 1 1 1 1 1 1 1 1 1 1 1 1 1 1 1 1 1 1 1 1 1 1 1 1 0.999999 0.999997 0.999992 0.999978 0.999943 0.999863 0.999698 0.999384 0.998831 0.997936 0.996594 0.994731 0.992324 0.98942 0.986131 0.982614 0.979043 0.975568 0.972297 0.969282 0.96652 0.963974 0.961583 0.959288 0.957039 0.954799 0.952547 0.95027 0.947961 0.945611 0.94321 0.940744 0.938196 0.935541 0.932753 0.929804 0.926641 0.923147 0.919252 0.915081 0.910134 0.902266 0.892638 0.888185 0.864774 0.70339 
1.12538 1.05889 1.05416 1.08932 1.09289 1.08754 1.08674 1.08785 1.08788 1.08743 1.0871 1.08689 1.08662 1.08637 1.08608 1.08582 1.08552 1.08524 1.08492 1.08459 1.08422 1.08383 1.08339 1.08292 1.0824 1.08182 1.08108 1.08002 1.07837 1.07577 1.0718 1.06606 1.0583 1.04865 1.03788 1.0272 1.0179 1.01079 1.00596 1.00302 1.00141 1.00061 1.00024 1.00009 1.00003 1.00001 1 1 1 1 1 1 1 1 1 1 1 1 1 1 1 1 1 1 1 1 1 1 1 1 1 1 1 1 1 1 1 1 1 1 1 1 1 1 1 1 1 1 1 1 1 1 1 1 1 1 1 1 1 1 1 1 1 1 1 1 1 1 1 1 1 1 1 1 1 1 1 1 1 1 1 1 1 1 1 1 1 1 1 1 1 1 1 1 1 1 1 1 1 1 1 1 1 1 1 1 1 1 1 1 1 1 1 1 1 1 1 1 1 1 1 1 1 1 1 1 1 1 1 1 1 1 1 1 1 1 1 1 1 1 1 1 1 1 1 1 1 1 1 1 1 1 1 1 1 1 1 1 1 1 1 1 1 1 1 1 1 1 1 1 0.999999 0.999996 0.999989 0.999971 0.999927 0.999831 0.999636 0.999275 0.998657 0.997681 0.996256 0.994323 0.991879 0.988983 0.985747 0.98232 0.978853 0.975476 0.972281 0.969309 0.96656 0.964002 0.961587 0.959264 0.956988 0.954728 0.952459 0.950169 0.947846 0.94548 0.94306 0.94057 0.937994 0.935307 0.93248 0.929465 0.926221 0.922717 0.918773 0.913944 0.908437 0.90324 0.894674 0.870695 0.846408 0.846408 
1.13433 1.06285 1.07174 1.09137 1.08849 1.08608 1.0872 1.08781 1.08742 1.08712 1.08691 1.08673 1.08643 1.08619 1.0859 1.08564 1.08533 1.08505 1.08471 1.08437 1.08398 1.08357 1.0831 1.0826 1.08202 1.08134 1.08045 1.07922 1.07742 1.0748 1.07108 1.06589 1.05892 1.05008 1.03982 1.02923 1.01964 1.01205 1.00677 1.00348 1.00165 1.00072 1.00029 1.00011 1.00004 1.00001 1 1 1 1 1 1 1 1 1 1 1 1 1 1 1 1 1 1 1 1 1 1 1 1 1 1 1 1 1 1 1 1 1 1 1 1 1 1 1 1 1 1 1 1 1 1 1 1 1 1 1 1 1 1 1 1 1 1 1 1 1 1 1 1 1 1 1 1 1 1 1 1 1 1 1 1 1 1 1 1 1 1 1 1 1 1 1 1 1 1 1 1 1 1 1 1 1 1 1 1 1 1 1 1 1 1 1 1 1 1 1 1 1 1 1 1 1 1 1 1 1 1 1 1 1 1 1 1 1 1 1 1 1 1 1 1 1 1 1 1 1 1 1 1 1 1 1 1 1 1 1 1 1 1 1 1 1 1 1 1 1 1 1 1 0.999999 0.999996 0.999988 0.999968 0.999919 0.999813 0.999601 0.999213 0.998555 0.99753 0.996051 0.99407 0.991596 0.988697 0.985489 0.982116 0.978719 0.975415 0.97228 0.969351 0.966625 0.964072 0.96165 0.959313 0.957021 0.954746 0.952465 0.950165 0.947833 0.94546 0.943032 0.940535 0.93795 0.935254 0.932425 0.929417 0.926161 0.922619 0.918823 0.914424 0.908681 0.902542 0.898025 0.887624 0.870051 0.870051 
1.0514 1.08702 1.09982 1.08238 1.08239 1.08784 1.08807 1.08693 1.0868 1.08695 1.08673 1.08648 1.08619 1.08599 1.08569 1.08544 1.08512 1.08483 1.08448 1.08413 1.08372 1.0833 1.0828 1.08226 1.08163 1.08087 1.0799 1.07857 1.0767 1.0741 1.07055 1.06579 1.05946 1.05133 1.04158 1.03112 1.02131 1.01329 1.00757 1.00394 1.00189 1.00083 1.00034 1.00012 1.00004 1.00001 1 1 1 1 1 1 1 1 1 1 1 1 1 1 1 1 1 1 1 1 1 1 1 1 1 1 1 1 1 1 1 1 1 1 1 1 1 1 1 1 1 1 1 1 1 1 1 1 1 1 1 1 1 1 1 1 1 1 1 1 1 1 1 1 1 1 1 1 1 1 1 1 1 1 1 1 1 1 1 1 1 1 1 1 1 1 1 1 1 1 1 1 1 1 1 1 1 1 1 1 1 1 1 1 1 1 1 1 1 1 1 1 1 1 1 1 1 1 1 1 1 1 1 1 1 1 1 1 1 1 1 1 1 1 1 1 1 1 1 1 1 1 1 1 1 1 1 1 1 1 1 1 1 1 1 1 1 1 1 1 1 1 1 1 0.999999 0.999996 0.999987 0.999965 0.999914 0.999802 0.99958 0.999174 0.998493 0.997439 0.995932 0.993929 0.991447 0.988558 0.985381 0.982053 0.978707 0.975452 0.972356 0.969453 0.966739 0.964187 0.96176 0.959415 0.957115 0.954833 0.952548 0.950244 0.947911 0.945537 0.943111 0.940619 0.938043 0.93536 0.932544 0.929576 0.926418 0.922935 0.919055 0.915065 0.910728 0.904127 0.896231 0.892183 0.887232 0.887232 
1.09069 1.09035 1.08283 1.08298 1.08808 1.08723 1.08612 1.08658 1.08685 1.08666 1.08636 1.08622 1.08597 1.08576 1.08545 1.08522 1.08489 1.08461 1.08424 1.08389 1.08346 1.08302 1.0825 1.08193 1.08126 1.08044 1.07937 1.07793 1.07597 1.07338 1.07004 1.06572 1.06005 1.0526 1.04334 1.033 1.02294 1.01451 1.00835 1.00438 1.00211 1.00093 1.00038 1.00014 1.00005 1.00002 1 1 1 1 1 1 1 1 1 1 1 1 1 1 1 1 1 1 1 1 1 1 1 1 1 1 1 1 1 1 1 1 1 1 1 1 1 1 1 1 1 1 1 1 1 1 1 1 1 1 1 1 1 1 1 1 1 1 1 1 1 1 1 1 1 1 1 1 1 1 1 1 1 1 1 1 1 1 1 1 1 1 1 1 1 1 1 1 1 1 1 1 1 1 1 1 1 1 1 1 1 1 1 1 1 1 1 1 1 1 1 1 1 1 1 1 1 1 1 1 1 1 1 1 1 1 1 1 1 1 1 1 1 1 1 1 1 1 1 1 1 1 1 1 1 1 1 1 1 1 1 1 1 1 1 1 1 1 1 1 1 1 1 1 0.999999 0.999996 0.999987 0.999965 0.999912 0.999798 0.999572 0.999161 0.998471 0.997407 0.99589 0.993883 0.991406 0.988536 0.98539 0.982104 0.978803 0.975588 0.972524 0.969638 0.966929 0.964374 0.961937 0.959582 0.957274 0.954987 0.9527 0.950397 0.948067 0.9457 0.943283 0.940803 0.938246 0.935595 0.932821 0.929891 0.926803 0.92354 0.919907 0.9158 0.911798 0.907671 0.901586 0.895945 0.892094 0.892094 
1.09249 1.08558 1.08366 1.08826 1.08684 1.08523 1.08627 1.08675 1.08639 1.0862 1.08609 1.08598 1.0857 1.08551 1.08521 1.08498 1.08465 1.08436 1.08398 1.08363 1.08318 1.08273 1.08218 1.08158 1.08085 1.07996 1.0788 1.07727 1.07526 1.07273 1.06962 1.06575 1.0607 1.0539 1.04508 1.03484 1.02455 1.01569 1.0091 1.00481 1.00233 1.00103 1.00042 1.00016 1.00005 1.00002 1 1 1 1 1 1 1 1 1 1 1 1 1 1 1 1 1 1 1 1 1 1 1 1 1 1 1 1 1 1 1 1 1 1 1 1 1 1 1 1 1 1 1 1 1 1 1 1 1 1 1 1 1 1 1 1 1 1 1 1 1 1 1 1 1 1 1 1 1 1 1 1 1 1 1 1 1 1 1 1 1 1 1 1 1 1 1 1 1 1 1 1 1 1 1 1 1 1 1 1 1 1 1 1 1 1 1 1 1 1 1 1 1 1 1 1 1 1 1 1 1 1 1 1 1 1 1 1 1 1 1 1 1 1 1 1 1 1 1 1 1 1 1 1 1 1 1 1 1 1 1 1 1 1 1 1 1 1 1 1 1 1 1 1 0.999999 0.999996 0.999987 0.999966 0.999914 0.999802 0.999578 0.999171 0.998486 0.99743 0.995923 0.99393 0.991473 0.988628 0.985514 0.982263 0.978999 0.975815 0.972773 0.9699 0.967192 0.964631 0.962185 0.95982 0.957504 0.955212 0.952923 0.950622 0.948298 0.945939 0.943535 0.941074 0.93854 0.93592 0.933201 0.930351 0.927321 0.924133 0.920835 0.917153 0.912899 0.908893 0.904911 0.90025 0.896168 0.896168 
1.08374 1.08604 1.08751 1.08635 1.08507 1.08621 1.08647 1.08603 1.08593 1.08602 1.08584 1.08567 1.08541 1.08526 1.08495 1.08473 1.08439 1.0841 1.08371 1.08335 1.08289 1.08241 1.08184 1.0812 1.08042 1.07946 1.07822 1.07662 1.07459 1.07214 1.06929 1.06587 1.06143 1.05523 1.04683 1.03667 1.02613 1.01684 1.00983 1.00522 1.00253 1.00113 1.00046 1.00017 1.00006 1.00002 1.00001 1 1 1 1 1 1 1 1 1 1 1 1 1 1 1 1 1 1 1 1 1 1 1 1 1 1 1 1 1 1 1 1 1 1 1 1 1 1 1 1 1 1 1 1 1 1 1 1 1 1 1 1 1 1 1 1 1 1 1 1 1 1 1 1 1 1 1 1 1 1 1 1 1 1 1 1 1 1 1 1 1 1 1 1 1 1 1 1 1 1 1 1 1 1 1 1 1 1 1 1 1 1 1 1 1 1 1 1 1 1 1 1 1 1 1 1 1 1 1 1 1 1 1 1 1 1 1 1 1 1 1 1 1 1 1 1 1 1 1 1 1 1 1 1 1 1 1 1 1 1 1 1 1 1 1 1 1 1 1 1 1 1 1 0.999999 0.999996 0.999988 0.999968 0.999919 0.999811 0.999596 0.999202 0.998536 0.997504 0.996026 0.994066 0.991642 0.988831 0.985751 0.982531 0.979294 0.976133 0.973105 0.970237 0.967527 0.964959 0.962502 0.960127 0.957803 0.955507 0.953217 0.950919 0.9486 0.946251 0.943861 0.94142 0.938916 0.936331 0.933653 0.930878 0.927974 0.924876 0.92163 0.918332 0.914701 0.910735 0.90693 0.902981 0.899142 0.899142 
1.08604 1.08615 1.08607 1.08539 1.08599 1.0862 1.08568 1.08573 1.08582 1.08572 1.08548 1.08538 1.08515 1.08498 1.08467 1.08446 1.08411 1.08382 1.08342 1.08304 1.08257 1.08207 1.08147 1.08079 1.07996 1.07894 1.07763 1.07597 1.07395 1.07162 1.06905 1.06609 1.06223 1.05661 1.04859 1.03848 1.02767 1.01796 1.01053 1.00561 1.00273 1.00121 1.0005 1.00019 1.00006 1.00002 1.00001 1 1 1 1 1 1 1 1 1 1 1 1 1 1 1 1 1 1 1 1 1 1 1 1 1 1 1 1 1 1 1 1 1 1 1 1 1 1 1 1 1 1 1 1 1 1 1 1 1 1 1 1 1 1 1 1 1 1 1 1 1 1 1 1 1 1 1 1 1 1 1 1 1 1 1 1 1 1 1 1 1 1 1 1 1 1 1 1 1 1 1 1 1 1 1 1 1 1 1 1 1 1 1 1 1 1 1 1 1 1 1 1 1 1 1 1 1 1 1 1 1 1 1 1 1 1 1 1 1 1 1 1 1 1 1 1 1 1 1 1 1 1 1 1 1 1 1 1 1 1 1 1 1 1 1 1 1 1 1 1 1 1 1 0.999999 0.999996 0.999989 0.999971 0.999925 0.999826 0.999624 0.99925 0.998615 0.997623 0.996193 0.994283 0.991909 0.989143 0.9861 0.98291 0.979694 0.976545 0.973523 0.970654 0.967938 0.965358 0.962889 0.960503 0.958171 0.95587 0.953579 0.951284 0.948973 0.946635 0.94426 0.941839 0.939362 0.936818 0.934189 0.931462 0.928644 0.925709 0.92258 0.919326 0.91603 0.912501 0.908843 0.905231 0.901682 0.901682 
1.08651 1.08565 1.08545 1.08572 1.08586 1.0855 1.08551 1.08565 1.08547 1.08536 1.08521 1.08511 1.08485 1.08469 1.08439 1.08417 1.08382 1.08352 1.08311 1.08272 1.08223 1.08171 1.08108 1.08036 1.07948 1.07839 1.07702 1.07533 1.07334 1.07117 1.06891 1.06642 1.06313 1.05804 1.05036 1.04026 1.02917 1.01903 1.01119 1.00597 1.0029 1.00129 1.00053 1.0002 1.00007 1.00002 1.00001 1 1 1 1 1 1 1 1 1 1 1 1 1 1 1 1 1 1 1 1 1 1 1 1 1 1 1 1 1 1 1 1 1 1 1 1 1 1 1 1 1 1 1 1 1 1 1 1 1 1 1 1 1 1 1 1 1 1 1 1 1 1 1 1 1 1 1 1 1 1 1 1 1 1 1 1 1 1 1 1 1 1 1 1 1 1 1 1 1 1 1 1 1 1 1 1 1 1 1 1 1 1 1 1 1 1 1 1 1 1 1 1 1 1 1 1 1 1 1 1 1 1 1 1 1 1 1 1 1 1 1 1 1 1 1 1 1 1 1 1 1 1 1 1 1 1 1 1 1 1 1 1 1 1 1 1 1 1 1 1 1 1 1 0.999999 0.999997 0.999991 0.999974 0.999934 0.999844 0.999659 0.999313 0.998719 0.997781 0.996415 0.994575 0.992268 0.989559 0.98656 0.9834 0.980201 0.977058 0.974034 0.971156 0.968427 0.965833 0.96335 0.960951 0.95861 0.956303 0.954011 0.951719 0.949415 0.947087 0.944728 0.942328 0.939877 0.937367 0.93479 0.932127 0.929364 0.92652 0.923572 0.920463 0.917266 0.913994 0.910586 0.907158 0.903809 0.903809 
1.08547 1.08544 1.0855 1.0855 1.08533 1.08532 1.08539 1.08528 1.08512 1.0851 1.08492 1.0848 1.08454 1.08439 1.08409 1.08387 1.08351 1.08321 1.08278 1.08238 1.08186 1.08132 1.08066 1.07991 1.07897 1.07782 1.0764 1.0747 1.07278 1.0708 1.06888 1.06687 1.06412 1.05953 1.05214 1.04202 1.03063 1.02006 1.01182 1.0063 1.00306 1.00136 1.00056 1.00021 1.00007 1.00002 1.00001 1 1 1 1 1 1 1 1 1 1 1 1 1 1 1 1 1 1 1 1 1 1 1 1 1 1 1 1 1 1 1 1 1 1 1 1 1 1 1 1 1 1 1 1 1 1 1 1 1 1 1 1 1 1 1 1 1 1 1 1 1 1 1 1 1 1 1 1 1 1 1 1 1 1 1 1 1 1 1 1 1 1 1 1 1 1 1 1 1 1 1 1 1 1 1 1 1 1 1 1 1 1 1 1 1 1 1 1 1 1 1 1 1 1 1 1 1 1 1 1 1 1 1 1 1 1 1 1 1 1 1 1 1 1 1 1 1 1 1 1 1 1 1 1 1 1 1 1 1 1 1 1 1 1 1 1 1 1 1 1 1 1 1 0.999999 0.999998 0.999992 0.999978 0.999943 0.999864 0.999699 0.999386 0.998842 0.99797 0.996685 0.994932 0.99271 0.990075 0.98713 0.984003 0.980819 0.977676 0.974643 0.971749 0.969003 0.96639 0.963889 0.961474 0.959122 0.956808 0.954514 0.952225 0.949927 0.94761 0.945266 0.942886 0.940462 0.937984 0.935446 0.932843 0.930156 0.927375 0.924521 0.921571 0.918503 0.915368 0.912164 0.908907 0.905699 0.905699 
1.08534 1.08521 1.08519 1.08513 1.08509 1.08513 1.08503 1.08496 1.08487 1.0848 1.08459 1.08449 1.08424 1.08408 1.08377 1.08355 1.08318 1.08287 1.08243 1.08201 1.08148 1.08091 1.08022 1.07942 1.07843 1.07723 1.07577 1.07408 1.07227 1.07053 1.06898 1.06746 1.06523 1.06109 1.05393 1.04374 1.03203 1.02102 1.01239 1.00661 1.00321 1.00142 1.00058 1.00022 1.00007 1.00002 1.00001 1 1 1 1 1 1 1 1 1 1 1 1 1 1 1 1 1 1 1 1 1 1 1 1 1 1 1 1 1 1 1 1 1 1 1 1 1 1 1 1 1 1 1 1 1 1 1 1 1 1 1 1 1 1 1 1 1 1 1 1 1 1 1 1 1 1 1 1 1 1 1 1 1 1 1 1 1 1 1 1 1 1 1 1 1 1 1 1 1 1 1 1 1 1 1 1 1 1 1 1 1 1 1 1 1 1 1 1 1 1 1 1 1 1 1 1 1 1 1 1 1 1 1 1 1 1 1 1 1 1 1 1 1 1 1 1 1 1 1 1 1 1 1 1 1 1 1 1 1 1 1 1 1 1 1 1 1 1 1 1 1 1 1 0.999999 0.999998 0.999994 0.999982 0.999953 0.999885 0.999742 0.999465 0.998976 0.998181 0.996991 0.995343 0.993225 0.990681 0.987805 0.98472 0.981553 0.978408 0.975358 0.972442 0.969671 0.967033 0.964511 0.962078 0.959711 0.957389 0.955091 0.952802 0.95051 0.948203 0.945873 0.943512 0.941113 0.938668 0.936168 0.933609 0.930987 0.928286 0.925505 0.922654 0.919718 0.9167 0.913627 0.910511 0.907419 0.907419 
1.08515 1.08489 1.08487 1.08486 1.08485 1.08481 1.08471 1.08469 1.08456 1.08447 1.08428 1.08417 1.08391 1.08375 1.08344 1.08321 1.08283 1.08251 1.08206 1.08163 1.08107 1.08048 1.07975 1.0789 1.07786 1.07661 1.07513 1.0735 1.07184 1.07037 1.06923 1.06819 1.06645 1.0627 1.05572 1.04542 1.03336 1.02192 1.01292 1.00688 1.00333 1.00148 1.0006 1.00022 1.00008 1.00002 1.00001 1 1 1 1 1 1 1 1 1 1 1 1 1 1 1 1 1 1 1 1 1 1 1 1 1 1 1 1 1 1 1 1 1 1 1 1 1 1 1 1 1 1 1 1 1 1 1 1 1 1 1 1 1 1 1 1 1 1 1 1 1 1 1 1 1 1 1 1 1 1 1 1 1 1 1 1 1 1 1 1 1 1 1 1 1 1 1 1 1 1 1 1 1 1 1 1 1 1 1 1 1 1 1 1 1 1 1 1 1 1 1 1 1 1 1 1 1 1 1 1 1 1 1 1 1 1 1 1 1 1 1 1 1 1 1 1 1 1 1 1 1 1 1 1 1 1 1 1 1 1 1 1 1 1 1 1 1 1 1 1 1 1 1 1 0.999999 0.999995 0.999986 0.999962 0.999906 0.999784 0.999546 0.999117 0.998406 0.997322 0.995796 0.993801 0.991368 0.988578 0.985548 0.982405 0.979258 0.976188 0.973244 0.97044 0.967772 0.965222 0.962767 0.960383 0.958049 0.955745 0.953455 0.951167 0.948869 0.946552 0.944209 0.941832 0.939416 0.936954 0.934437 0.931864 0.929229 0.926524 0.92375 0.920911 0.918001 0.915034 0.912029 0.909033 0.909033 
1.08479 1.08459 1.08459 1.08456 1.08453 1.08448 1.08442 1.08437 1.08422 1.08414 1.08395 1.08383 1.08357 1.08341 1.08309 1.08285 1.08246 1.08213 1.08166 1.08121 1.08063 1.08001 1.07924 1.07835 1.07725 1.07597 1.0745 1.07296 1.0715 1.07036 1.06964 1.06908 1.0678 1.06438 1.0575 1.04705 1.03462 1.02275 1.01339 1.00711 1.00344 1.00152 1.00062 1.00023 1.00008 1.00002 1.00001 1 1 1 1 1 1 1 1 1 1 1 1 1 1 1 1 1 1 1 1 1 1 1 1 1 1 1 1 1 1 1 1 1 1 1 1 1 1 1 1 1 1 1 1 1 1 1 1 1 1 1 1 1 1 1 1 1 1 1 1 1 1 1 1 1 1 1 1 1 1 1 1 1 1 1 1 1 1 1 1 1 1 1 1 1 1 1 1 1 1 1 1 1 1 1 1 1 1 1 1 1 1 1 1 1 1 1 1 1 1 1 1 1 1 1 1 1 1 1 1 1 1 1 1 1 1 1 1 1 1 1 1 1 1 1 1 1 1 1 1 1 1 1 1 1 1 1 1 1 1 1 1 1 1 1 1 1 1 1 1 1 1 1 1 0.999999 0.999996 0.999989 0.99997 0.999925 0.999825 0.999625 0.999257 0.998635 0.997666 0.996276 0.994424 0.992123 0.98944 0.986483 0.983375 0.980232 0.977143 0.974164 0.971322 0.968616 0.966033 0.96355 0.961144 0.958795 0.956481 0.954188 0.951901 0.94961 0.947305 0.944978 0.942623 0.940233 0.937802 0.935326 0.932798 0.930216 0.927576 0.924873 0.922111 0.919289 0.916412 0.913497 0.910582 0.910582 
1.08447 1.08426 1.08425 1.08423 1.08419 1.08416 1.08409 1.08402 1.08388 1.0838 1.0836 1.08348 1.08321 1.08304 1.08271 1.08247 1.08207 1.08172 1.08124 1.08077 1.08016 1.07951 1.07869 1.07775 1.07661 1.07532 1.0739 1.0725 1.0713 1.07052 1.07024 1.07013 1.06925 1.0661 1.05926 1.0486 1.03578 1.0235 1.01381 1.00732 1.00353 1.00155 1.00063 1.00023 1.00008 1.00002 1.00001 1 1 1 1 1 1 1 1 1 1 1 1 1 1 1 1 1 1 1 1 1 1 1 1 1 1 1 1 1 1 1 1 1 1 1 1 1 1 1 1 1 1 1 1 1 1 1 1 1 1 1 1 1 1 1 1 1 1 1 1 1 1 1 1 1 1 1 1 1 1 1 1 1 1 1 1 1 1 1 1 1 1 1 1 1 1 1 1 1 1 1 1 1 1 1 1 1 1 1 1 1 1 1 1 1 1 1 1 1 1 1 1 1 1 1 1 1 1 1 1 1 1 1 1 1 1 1 1 1 1 1 1 1 1 1 1 1 1 1 1 1 1 1 1 1 1 1 1 1 1 1 1 1 1 1 1 1 1 1 1 1 1 1 1 0.999999 0.999997 0.999992 0.999978 0.999942 0.999863 0.999699 0.999391 0.998859 0.998012 0.996768 0.995075 0.992928 0.990378 0.987517 0.984463 0.981334 0.978229 0.975215 0.972328 0.969577 0.966952 0.964435 0.962002 0.959633 0.957306 0.955006 0.952718 0.950431 0.948135 0.945823 0.943487 0.941121 0.938719 0.936277 0.933791 0.931256 0.92867 0.92603 0.923334 0.920584 0.917784 0.914946 0.912101 0.912101 
1.08414 1.0839 1.0839 1.08387 1.08384 1.08381 1.08373 1.08366 1.08352 1.08343 1.08323 1.0831 1.08283 1.08265 1.08231 1.08206 1.08164 1.08129 1.08079 1.08029 1.07966 1.07896 1.0781 1.07711 1.07595 1.07467 1.07335 1.07215 1.07126 1.07088 1.07103 1.07135 1.07081 1.06784 1.06098 1.05006 1.03685 1.02416 1.01417 1.00749 1.0036 1.00158 1.00064 1.00024 1.00008 1.00002 1.00001 1 1 1 1 1 1 1 1 1 1 1 1 1 1 1 1 1 1 1 1 1 1 1 1 1 1 1 1 1 1 1 1 1 1 1 1 1 1 1 1 1 1 1 1 1 1 1 1 1 1 1 1 1 1 1 1 1 1 1 1 1 1 1 1 1 1 1 1 1 1 1 1 1 1 1 1 1 1 1 1 1 1 1 1 1 1 1 1 1 1 1 1 1 1 1 1 1 1 1 1 1 1 1 1 1 1 1 1 1 1 1 1 1 1 1 1 1 1 1 1 1 1 1 1 1 1 1 1 1 1 1 1 1 1 1 1 1 1 1 1 1 1 1 1 1 1 1 1 1 1 1 1 1 1 1 1 1 1 1 1 1 1 1 1 1 0.999998 0.999994 0.999984 0.999957 0.999896 0.999766 0.999515 0.999071 0.998346 0.997256 0.995737 0.993766 0.991373 0.988635 0.985659 0.982563 0.979452 0.976405 0.973471 0.970668 0.967995 0.965435 0.962968 0.960572 0.958227 0.955916 0.953623 0.951338 0.949049 0.946748 0.944428 0.942084 0.939708 0.937298 0.934848 0.932355 0.929816 0.927229 0.924593 0.921906 0.919172 0.9164 0.913615 0.913615 
1.08377 1.08352 1.08351 1.08349 1.08346 1.08343 1.08335 1.08328 1.08314 1.08304 1.08283 1.0827 1.08242 1.08224 1.08188 1.08162 1.08119 1.08082 1.0803 1.07978 1.0791 1.07837 1.07746 1.07644 1.07528 1.07407 1.0729 1.07195 1.07141 1.07145 1.07203 1.07272 1.07246 1.06959 1.06263 1.05141 1.0378 1.02474 1.01447 1.00763 1.00366 1.0016 1.00065 1.00024 1.00008 1.00003 1.00001 1 1 1 1 1 1 1 1 1 1 1 1 1 1 1 1 1 1 1 1 1 1 1 1 1 1 1 1 1 1 1 1 1 1 1 1 1 1 1 1 1 1 1 1 1 1 1 1 1 1 1 1 1 1 1 1 1 1 1 1 1 1 1 1 1 1 1 1 1 1 1 1 1 1 1 1 1 1 1 1 1 1 1 1 1 1 1 1 1 1 1 1 1 1 1 1 1 1 1 1 1 1 1 1 1 1 1 1 1 1 1 1 1 1 1 1 1 1 1 1 1 1 1 1 1 1 1 1 1 1 1 1 1 1 1 1 1 1 1 1 1 1 1 1 1 1 1 1 1 1 1 1 1 1 1 1 1 1 1 1 1 1 1 1 1 0.999999 0.999996 0.999989 0.999969 0.999923 0.999823 0.999625 0.999264 0.99866 0.997726 0.99639 0.994614 0.992404 0.989818 0.986951 0.983913 0.980814 0.977744 0.974764 0.971905 0.969175 0.966564 0.964055 0.961625 0.959256 0.956928 0.954626 0.952338 0.950052 0.94776 0.945454 0.943128 0.940776 0.938394 0.935977 0.933521 0.931025 0.928485 0.9259 0.923268 0.920592 0.917879 0.915148 0.915148 
1.08338 1.0831 1.08309 1.08308 1.08305 1.08302 1.08293 1.08286 1.08271 1.08262 1.0824 1.08227 1.08198 1.08178 1.08142 1.08114 1.0807 1.08031 1.07976 1.07921 1.0785 1.07772 1.07677 1.07574 1.07462 1.07353 1.07258 1.07195 1.0718 1.07226 1.07323 1.07424 1.07416 1.07132 1.06418 1.05264 1.03863 1.02522 1.01471 1.00774 1.0037 1.00162 1.00065 1.00024 1.00008 1.00003 1.00001 1 1 1 1 1 1 1 1 1 1 1 1 1 1 1 1 1 1 1 1 1 1 1 1 1 1 1 1 1 1 1 1 1 1 1 1 1 1 1 1 1 1 1 1 1 1 1 1 1 1 1 1 1 1 1 1 1 1 1 1 1 1 1 1 1 1 1 1 1 1 1 1 1 1 1 1 1 1 1 1 1 1 1 1 1 1 1 1 1 1 1 1 1 1 1 1 1 1 1 1 1 1 1 1 1 1 1 1 1 1 1 1 1 1 1 1 1 1 1 1 1 1 1 1 1 1 1 1 1 1 1 1 1 1 1 1 1 1 1 1 1 1 1 1 1 1 1 1 1 1 1 1 1 1 1 1 1 1 1 1 1 1 1 1 1 0.999999 0.999998 0.999993 0.999979 0.999946 0.999871 0.99972 0.999435 0.998944 0.998164 0.997016 0.995448 0.993446 0.991044 0.988318 0.985371 0.982311 0.979236 0.976218 0.973303 0.97051 0.96784 0.965279 0.962807 0.960406 0.958054 0.955738 0.953442 0.951155 0.948867 0.946572 0.944261 0.941929 0.939572 0.937184 0.934763 0.932305 0.929807 0.927268 0.924686 0.922063 0.919402 0.916721 0.916721 
1.08294 1.08262 1.08262 1.08261 1.08259 1.08256 1.08248 1.08241 1.08226 1.08216 1.08193 1.08179 1.0815 1.08129 1.08092 1.08063 1.08017 1.07976 1.07918 1.07859 1.07783 1.07702 1.07606 1.07506 1.07403 1.07313 1.07246 1.07219 1.07245 1.07331 1.07462 1.07587 1.07589 1.07298 1.06562 1.05373 1.03935 1.02562 1.01491 1.00782 1.00373 1.00163 1.00065 1.00024 1.00008 1.00003 1.00001 1 1 1 1 1 1 1 1 1 1 1 1 1 1 1 1 1 1 1 1 1 1 1 1 1 1 1 1 1 1 1 1 1 1 1 1 1 1 1 1 1 1 1 1 1 1 1 1 1 1 1 1 1 1 1 1 1 1 1 1 1 1 1 1 1 1 1 1 1 1 1 1 1 1 1 1 1 1 1 1 1 1 1 1 1 1 1 1 1 1 1 1 1 1 1 1 1 1 1 1 1 1 1 1 1 1 1 1 1 1 1 1 1 1 1 1 1 1 1 1 1 1 1 1 1 1 1 1 1 1 1 1 1 1 1 1 1 1 1 1 1 1 1 1 1 1 1 1 1 1 1 1 1 1 1 1 1 1 1 1 1 1 1 1 1 1 0.999999 0.999995 0.999986 0.999963 0.99991 0.999797 0.99958 0.999193 0.998559 0.997599 0.996247 0.994471 0.992283 0.989736 0.986917 0.98393 0.980876 0.977837 0.974874 0.972019 0.969283 0.96666 0.964137 0.961694 0.959311 0.956972 0.954663 0.952369 0.950082 0.947792 0.945493 0.943179 0.940843 0.938482 0.936091 0.933667 0.931208 0.928711 0.926175 0.923599 0.920988 0.918353 0.918353 
1.08244 1.08209 1.08209 1.08209 1.08208 1.08205 1.08197 1.0819 1.08175 1.08165 1.08142 1.08127 1.08097 1.08076 1.08037 1.08007 1.07958 1.07914 1.07853 1.0779 1.07712 1.07629 1.07535 1.07443 1.07357 1.07291 1.07257 1.0727 1.07336 1.07459 1.07618 1.07757 1.0776 1.07455 1.06692 1.05467 1.03994 1.02594 1.01506 1.00788 1.00375 1.00164 1.00066 1.00024 1.00008 1.00003 1.00001 1 1 1 1 1 1 1 1 1 1 1 1 1 1 1 1 1 1 1 1 1 1 1 1 1 1 1 1 1 1 1 1 1 1 1 1 1 1 1 1 1 1 1 1 1 1 1 1 1 1 1 1 1 1 1 1 1 1 1 1 1 1 1 1 1 1 1 1 1 1 1 1 1 1 1 1 1 1 1 1 1 1 1 1 1 1 1 1 1 1 1 1 1 1 1 1 1 1 1 1 1 1 1 1 1 1 1 1 1 1 1 1 1 1 1 1 1 1 1 1 1 1 1 1 1 1 1 1 1 1 1 1 1 1 1 1 1 1 1 1 1 1 1 1 1 1 1 1 1 1 1 1 1 1 1 1 1 1 1 1 1 1 1 1 1 1 0.999999 0.999997 0.999991 0.999976 0.999939 0.999859 0.999698 0.999404 0.998904 0.998123 0.996988 0.995452 0.993502 0.991169 0.988521 0.985649 0.982652 0.979621 0.976626 0.973715 0.970912 0.968222 0.965637 0.963142 0.960718 0.958349 0.956018 0.953712 0.951419 0.949131 0.946839 0.944537 0.942219 0.939881 0.937517 0.935125 0.932702 0.930244 0.927751 0.92522 0.922654 0.920065 0.920065 
1.08186 1.08147 1.08149 1.08151 1.08151 1.08149 1.08141 1.08134 1.08119 1.08109 1.08086 1.08071 1.08039 1.08017 1.07977 1.07945 1.07894 1.07847 1.07782 1.07717 1.07637 1.07556 1.0747 1.07392 1.07329 1.07295 1.07298 1.07351 1.07455 1.07607 1.07785 1.0793 1.07925 1.076 1.06806 1.05547 1.04042 1.02619 1.01517 1.00792 1.00377 1.00164 1.00066 1.00024 1.00008 1.00003 1.00001 1 1 1 1 1 1 1 1 1 1 1 1 1 1 1 1 1 1 1 1 1 1 1 1 1 1 1 1 1 1 1 1 1 1 1 1 1 1 1 1 1 1 1 1 1 1 1 1 1 1 1 1 1 1 1 1 1 1 1 1 1 1 1 1 1 1 1 1 1 1 1 1 1 1 1 1 1 1 1 1 1 1 1 1 1 1 1 1 1 1 1 1 1 1 1 1 1 1 1 1 1 1 1 1 1 1 1 1 1 1 1 1 1 1 1 1 1 1 1 1 1 1 1 1 1 1 1 1 1 1 1 1 1 1 1 1 1 1 1 1 1 1 1 1 1 1 1 1 1 1 1 1 1 1 1 1 1 1 1 1 1 1 1 1 1 1 1 0.999998 0.999995 0.999985 0.999961 0.999906 0.999792 0.999575 0.999194 0.998579 0.997654 0.996361 0.994668 0.992581 0.990145 0.987435 0.984541 0.981555 0.978557 0.975608 0.972745 0.969986 0.967333 0.964776 0.962301 0.959891 0.95753 0.955204 0.952899 0.950606 0.948317 0.946023 0.943719 0.9414 0.93906 0.936697 0.934306 0.931885 0.929432 0.926944 0.924424 0.92188 0.92188 
1.08119 1.08076 1.0808 1.08084 1.08086 1.08085 1.08078 1.08071 1.08057 1.08047 1.08024 1.08008 1.07976 1.07953 1.07911 1.07876 1.07823 1.07773 1.07706 1.0764 1.07562 1.07489 1.07417 1.07361 1.07327 1.07329 1.07371 1.07461 1.07597 1.07772 1.07959 1.08101 1.0808 1.07729 1.06904 1.05612 1.04079 1.02638 1.01525 1.00795 1.00378 1.00165 1.00066 1.00024 1.00008 1.00003 1.00001 1 1 1 1 1 1 1 1 1 1 1 1 1 1 1 1 1 1 1 1 1 1 1 1 1 1 1 1 1 1 1 1 1 1 1 1 1 1 1 1 1 1 1 1 1 1 1 1 1 1 1 1 1 1 1 1 1 1 1 1 1 1 1 1 1 1 1 1 1 1 1 1 1 1 1 1 1 1 1 1 1 1 1 1 1 1 1 1 1 1 1 1 1 1 1 1 1 1 1 1 1 1 1 1 1 1 1 1 1 1 1 1 1 1 1 1 1 1 1 1 1 1 1 1 1 1 1 1 1 1 1 1 1 1 1 1 1 1 1 1 1 1 1 1 1 1 1 1 1 1 1 1 1 1 1 1 1 1 1 1 1 1 1 1 1 1 1 0.999999 0.999997 0.999991 0.999976 0.99994 0.999862 0.999708 0.999429 0.998961 0.998232 0.997178 0.99575 0.993933 0.991747 0.989245 0.986505 0.983613 0.980653 0.977696 0.974791 0.971971 0.969248 0.966624 0.964088 0.961628 0.959227 0.956871 0.954547 0.952243 0.949949 0.947659 0.945365 0.94306 0.940742 0.938404 0.936044 0.933658 0.931244 0.9288 0.926325 0.923828 0.923828 
1.08043 1.07994 1.08002 1.0801 1.08013 1.08013 1.08007 1.08002 1.07988 1.07978 1.07955 1.07939 1.07906 1.07881 1.07838 1.07801 1.07745 1.07694 1.07628 1.07565 1.07496 1.07436 1.07385 1.07358 1.07358 1.07397 1.07477 1.076 1.0776 1.07946 1.08134 1.08263 1.0822 1.07841 1.06984 1.05663 1.04107 1.02651 1.0153 1.00797 1.00379 1.00165 1.00066 1.00024 1.00008 1.00003 1.00001 1 1 1 1 1 1 1 1 1 1 1 1 1 1 1 1 1 1 1 1 1 1 1 1 1 1 1 1 1 1 1 1 1 1 1 1 1 1 1 1 1 1 1 1 1 1 1 1 1 1 1 1 1 1 1 1 1 1 1 1 1 1 1 1 1 1 1 1 1 1 1 1 1 1 1 1 1 1 1 1 1 1 1 1 1 1 1 1 1 1 1 1 1 1 1 1 1 1 1 1 1 1 1 1 1 1 1 1 1 1 1 1 1 1 1 1 1 1 1 1 1 1 1 1 1 1 1 1 1 1 1 1 1 1 1 1 1 1 1 1 1 1 1 1 1 1 1 1 1 1 1 1 1 1 1 1 1 1 1 1 1 1 1 1 1 1 1 1 0.999998 0.999995 0.999986 0.999963 0.999912 0.999808 0.999611 0.999269 0.998715 0.997884 0.996719 0.995184 0.993278 0.991029 0.988496 0.985754 0.982883 0.97996 0.977046 0.974185 0.971403 0.968712 0.966111 0.963592 0.961141 0.958746 0.956394 0.954071 0.951767 0.949475 0.947185 0.944893 0.942592 0.940277 0.937946 0.935594 0.933219 0.93082 0.928394 0.925948 0.925948 
1.07955 1.07901 1.07914 1.07926 1.07932 1.07934 1.0793 1.07926 1.07913 1.07903 1.0788 1.07864 1.0783 1.07804 1.07759 1.07721 1.07665 1.07616 1.07554 1.075 1.07445 1.07407 1.07383 1.07389 1.07426 1.07501 1.07614 1.07761 1.07935 1.08124 1.08302 1.08412 1.08343 1.07934 1.07048 1.05701 1.04127 1.0266 1.01534 1.00799 1.00379 1.00165 1.00066 1.00024 1.00008 1.00003 1.00001 1 1 1 1 1 1 1 1 1 1 1 1 1 1 1 1 1 1 1 1 1 1 1 1 1 1 1 1 1 1 1 1 1 1 1 1 1 1 1 1 1 1 1 1 1 1 1 1 1 1 1 1 1 1 1 1 1 1 1 1 1 1 1 1 1 1 1 1 1 1 1 1 1 1 1 1 1 1 1 1 1 1 1 1 1 1 1 1 1 1 1 1 1 1 1 1 1 1 1 1 1 1 1 1 1 1 1 1 1 1 1 1 1 1 1 1 1 1 1 1 1 1 1 1 1 1 1 1 1 1 1 1 1 1 1 1 1 1 1 1 1 1 1 1 1 1 1 1 1 1 1 1 1 1 1 1 1 1 1 1 1 1 1 1 1 1 1 1 0.999999 0.999997 0.999992 0.999979 0.999947 0.99988 0.999747 0.999506 0.999102 0.998472 0.997555 0.996303 0.994694 0.992733 0.990455 0.98792 0.985199 0.982366 0.979489 0.976622 0.973805 0.971059 0.968396 0.965815 0.963309 0.960867 0.958478 0.956128 0.953808 0.951507 0.949218 0.946934 0.944647 0.942355 0.940052 0.937735 0.935401 0.933049 0.930677 0.92829 0.92829 
1.07856 1.07798 1.07818 1.07834 1.07843 1.07847 1.07845 1.07843 1.07831 1.07822 1.07799 1.07782 1.07748 1.07722 1.07677 1.0764 1.07588 1.07544 1.07493 1.07455 1.07421 1.0741 1.07419 1.0746 1.07531 1.07639 1.07776 1.07938 1.08117 1.08298 1.08458 1.08544 1.08446 1.08009 1.07097 1.05729 1.04141 1.02666 1.01536 1.00799 1.00379 1.00165 1.00066 1.00024 1.00008 1.00003 1.00001 1 1 1 1 1 1 1 1 1 1 1 1 1 1 1 1 1 1 1 1 1 1 1 1 1 1 1 1 1 1 1 1 1 1 1 1 1 1 1 1 1 1 1 1 1 1 1 1 1 1 1 1 1 1 1 1 1 1 1 1 1 1 1 1 1 1 1 1 1 1 1 1 1 1 1 1 1 1 1 1 1 1 1 1 1 1 1 1 1 1 1 1 1 1 1 1 1 1 1 1 1 1 1 1 1 1 1 1 1 1 1 1 1 1 1 1 1 1 1 1 1 1 1 1 1 1 1 1 1 1 1 1 1 1 1 1 1 1 1 1 1 1 1 1 1 1 1 1 1 1 1 1 1 1 1 1 1 1 1 1 1 1 1 1 1 1 1 1 1 0.999999 0.999996 0.999988 0.99997 0.999928 0.999843 0.999681 0.999399 0.998941 0.998248 0.997265 0.995956 0.994303 0.992321 0.990046 0.987536 0.984857 0.982076 0.979254 0.97644 0.973668 0.97096 0.968325 0.965765 0.963272 0.96084 0.958458 0.956114 0.953801 0.951507 0.949228 0.946955 0.944683 0.94241 0.940129 0.937841 0.935542 0.933232 0.930915 0.930915 
1.07744 1.07688 1.07715 1.07736 1.07748 1.07755 1.07755 1.07755 1.07744 1.07736 1.07714 1.07698 1.07665 1.0764 1.07598 1.07567 1.07522 1.07491 1.07456 1.0744 1.07434 1.07454 1.07496 1.0757 1.07672 1.07803 1.07955 1.08123 1.08294 1.0846 1.08597 1.08655 1.0853 1.08066 1.07132 1.05748 1.0415 1.0267 1.01537 1.008 1.00379 1.00165 1.00066 1.00024 1.00008 1.00003 1.00001 1 1 1 1 1 1 1 1 1 1 1 1 1 1 1 1 1 1 1 1 1 1 1 1 1 1 1 1 1 1 1 1 1 1 1 1 1 1 1 1 1 1 1 1 1 1 1 1 1 1 1 1 1 1 1 1 1 1 1 1 1 1 1 1 1 1 1 1 1 1 1 1 1 1 1 1 1 1 1 1 1 1 1 1 1 1 1 1 1 1 1 1 1 1 1 1 1 1 1 1 1 1 1 1 1 1 1 1 1 1 1 1 1 1 1 1 1 1 1 1 1 1 1 1 1 1 1 1 1 1 1 1 1 1 1 1 1 1 1 1 1 1 1 1 1 1 1 1 1 1 1 1 1 1 1 1 1 1 1 1 1 1 1 1 1 1 1 1 1 0.999999 0.999998 0.999994 0.999983 0.999959 0.999907 0.999804 0.999616 0.999298 0.998797 0.998058 0.997035 0.995695 0.994032 0.99206 0.989818 0.987358 0.984741 0.982027 0.979272 0.976518 0.973798 0.971132 0.96853 0.965994 0.963521 0.961103 0.958734 0.956404 0.954104 0.951827 0.949567 0.947318 0.945076 0.942838 0.9406 0.938363 0.936127 0.933894 0.933894 
1.07626 1.07579 1.07613 1.07637 1.07652 1.07662 1.07665 1.07667 1.07658 1.07652 1.07631 1.07618 1.07588 1.07568 1.07533 1.07512 1.07481 1.07468 1.07456 1.07467 1.0749 1.07542 1.07616 1.07718 1.07842 1.07986 1.08143 1.08304 1.08461 1.08604 1.08715 1.08745 1.08594 1.08108 1.07157 1.05761 1.04156 1.02672 1.01538 1.008 1.00379 1.00165 1.00066 1.00024 1.00008 1.00003 1.00001 1 1 1 1 1 1 1 1 1 1 1 1 1 1 1 1 1 1 1 1 1 1 1 1 1 1 1 1 1 1 1 1 1 1 1 1 1 1 1 1 1 1 1 1 1 1 1 1 1 1 1 1 1 1 1 1 1 1 1 1 1 1 1 1 1 1 1 1 1 1 1 1 1 1 1 1 1 1 1 1 1 1 1 1 1 1 1 1 1 1 1 1 1 1 1 1 1 1 1 1 1 1 1 1 1 1 1 1 1 1 1 1 1 1 1 1 1 1 1 1 1 1 1 1 1 1 1 1 1 1 1 1 1 1 1 1 1 1 1 1 1 1 1 1 1 1 1 1 1 1 1 1 1 1 1 1 1 1 1 1 1 1 1 1 1 1 1 1 1 1 0.999999 0.999997 0.999992 0.999978 0.999948 0.999886 0.999767 0.999557 0.999212 0.998681 0.997917 0.996878 0.995538 0.993895 0.991964 0.989782 0.987396 0.984861 0.982232 0.979557 0.976876 0.974219 0.971605 0.969046 0.966544 0.9641 0.961709 0.959364 0.957059 0.954788 0.952543 0.95032 0.948115 0.945925 0.943749 0.941586 0.939438 0.937308 0.937308 
1.07513 1.07486 1.07523 1.07548 1.07565 1.07577 1.07583 1.07587 1.07581 1.07577 1.07561 1.07552 1.07529 1.07518 1.07496 1.07489 1.07478 1.07488 1.07502 1.07541 1.07594 1.07674 1.07772 1.07894 1.08029 1.08177 1.08327 1.08473 1.08608 1.08726 1.0881 1.08815 1.08641 1.08137 1.07173 1.05769 1.04159 1.02673 1.01538 1.008 1.00379 1.00165 1.00066 1.00024 1.00008 1.00003 1.00001 1 1 1 1 1 1 1 1 1 1 1 1 1 1 1 1 1 1 1 1 1 1 1 1 1 1 1 1 1 1 1 1 1 1 1 1 1 1 1 1 1 1 1 1 1 1 1 1 1 1 1 1 1 1 1 1 1 1 1 1 1 1 1 1 1 1 1 1 1 1 1 1 1 1 1 1 1 1 1 1 1 1 1 1 1 1 1 1 1 1 1 1 1 1 1 1 1 1 1 1 1 1 1 1 1 1 1 1 1 1 1 1 1 1 1 1 1 1 1 1 1 1 1 1 1 1 1 1 1 1 1 1 1 1 1 1 1 1 1 1 1 1 1 1 1 1 1 1 1 1 1 1 1 1 1 1 1 1 1 1 1 1 1 1 1 1 1 1 1 1 1 0.999999 0.999996 0.999989 0.999973 0.999937 0.999866 0.999735 0.999509 0.999147 0.998604 0.997835 0.996805 0.995494 0.9939 0.992039 0.989944 0.987657 0.985227 0.982702 0.980125 0.977534 0.974956 0.972411 0.969911 0.967462 0.965064 0.962717 0.960416 0.958157 0.955936 0.953748 0.95159 0.94946 0.947357 0.945283 0.943241 0.941235 0.941235 