# vtk DataFile Version 3.0
LBM simulation at step 130
ASCII
DATASET STRUCTURED_POINTS
DIMENSIONS 128 128 1
ORIGIN 0 0 0
SPACING 1 1 1
POINT_DATA 16384
SCALARS density float
LOOKUP_TABLE default
0.954014 1.01943 1.02118 1.01787 1.0181 1.0183 1.01817 1.01808 1.01804 1.018 1.01796 1.01793 1.01791 1.01788 1.01786 1.01784 1.01782 1.01781 1.01779 1.01778 1.01776 1.01775 1.01774 1.01773 1.01772 1.01771 1.01771 1.0177 1.0177 1.0177 1.0177 1.01769 1.01769 1.01769 1.01769 1.01769 1.01769 1.01769 1.01768 1.01768 1.01767 1.01766 1.01765 1.01764 1.01762 1.01759 1.01755 1.01751 1.01744 1.01734 1.01721 1.01703 1.01681 1.01652 1.01617 1.01576 1.01529 1.01476 1.01419 1.01358 1.01294 1.01227 1.01157 1.01084 1.01006 1.00923 1.00832 1.0073 1.00616 1.00485 1.00338 1.00175 0.999985 0.998139 0.996282 0.994487 0.992822 0.991336 0.990055 0.988979 0.988091 0.987363 0.98676 0.98625 0.985806 0.985406 0.985034 0.984679 0.984334 0.983994 0.983657 0.983322 0.982987 0.982652 0.982317 0.981981 0.981644 0.981305 0.980965 0.980623 0.980279 0.979932 0.979583 0.97923 0.978874 0.978514 0.978149 0.977779 0.977404 0.977023 0.976634 0.976238 0.975833 0.975418 0.974991 0.974551 0.974096 0.973623 0.973126 0.972606 0.972039 0.971405 0.970747 0.970388 0.968524 0.967205 0.984608 0.984608 
1.022 1.02006 1.01625 1.01752 1.01837 1.0183 1.01816 1.01809 1.01804 1.018 1.01796 1.01793 1.01791 1.01788 1.01786 1.01784 1.01782 1.0178 1.01779 1.01777 1.01776 1.01775 1.01774 1.01773 1.01772 1.01772 1.01771 1.01771 1.0177 1.0177 1.0177 1.0177 1.0177 1.0177 1.0177 1.0177 1.0177 1.0177 1.0177 1.01769 1.01768 1.01767 1.01766 1.01765 1.01762 1.0176 1.01756 1.0175 1.01743 1.01732 1.01718 1.017 1.01676 1.01646 1.01611 1.01569 1.01521 1.01468 1.0141 1.01349 1.01284 1.01217 1.01147 1.01074 1.00996 1.00913 1.00822 1.00721 1.00608 1.00481 1.00338 1.0018 1.00008 0.998283 0.996457 0.994678 0.993011 0.991509 0.990201 0.989095 0.988176 0.987421 0.986796 0.986269 0.985814 0.985405 0.985028 0.98467 0.984322 0.983981 0.983643 0.983307 0.982972 0.982636 0.9823 0.981963 0.981625 0.981286 0.980944 0.980601 0.980256 0.979908 0.979557 0.979203 0.978845 0.978483 0.978116 0.977744 0.977366 0.976981 0.976589 0.976189 0.975779 0.975358 0.974925 0.974478 0.974012 0.973527 0.973017 0.972482 0.971911 0.971242 0.970389 0.969747 0.970405 0.971511 0.969598 0.969598 
1.02942 1.01695 1.01632 1.01884 1.01846 1.01805 1.01808 1.0181 1.01805 1.018 1.01796 1.01793 1.01791 1.01788 1.01786 1.01784 1.01782 1.0178 1.01779 1.01778 1.01776 1.01775 1.01774 1.01774 1.01773 1.01773 1.01773 1.01773 1.01773 1.01773 1.01773 1.01773 1.01774 1.01774 1.01775 1.01775 1.01775 1.01775 1.01775 1.01775 1.01774 1.01773 1.01772 1.0177 1.01768 1.01765 1.0176 1.01754 1.01746 1.01735 1.0172 1.017 1.01675 1.01644 1.01607 1.01564 1.01515 1.01461 1.01402 1.0134 1.01275 1.01208 1.01137 1.01064 1.00987 1.00904 1.00815 1.00716 1.00606 1.00482 1.00343 1.00189 1.00021 0.998442 0.996633 0.994855 0.993178 0.991656 0.990322 0.989189 0.988245 0.987468 0.986826 0.986286 0.985821 0.985407 0.985025 0.984664 0.984315 0.983973 0.983634 0.983297 0.982961 0.982625 0.982288 0.98195 0.981612 0.981271 0.980929 0.980585 0.980239 0.97989 0.979538 0.979182 0.978823 0.978459 0.97809 0.977716 0.977336 0.976949 0.976555 0.976151 0.975738 0.975313 0.974875 0.974421 0.97395 0.973459 0.97294 0.972376 0.971774 0.97119 0.970608 0.969785 0.969265 0.96742 0.960873 0.960873 
1.01423 1.01858 1.0206 1.01828 1.01764 1.01814 1.01822 1.01808 1.01801 1.01799 1.01796 1.01793 1.0179 1.01788 1.01786 1.01784 1.01782 1.0178 1.01779 1.01778 1.01777 1.01776 1.01776 1.01775 1.01775 1.01776 1.01776 1.01777 1.01777 1.01778 1.01779 1.0178 1.01781 1.01783 1.01784 1.01784 1.01785 1.01786 1.01786 1.01786 1.01785 1.01784 1.01783 1.01781 1.01778 1.01775 1.0177 1.01763 1.01754 1.01741 1.01725 1.01704 1.01678 1.01645 1.01607 1.01562 1.01512 1.01456 1.01397 1.01334 1.01269 1.012 1.0113 1.01057 1.0098 1.00898 1.00809 1.00713 1.00605 1.00485 1.00349 1.00199 1.00034 0.998594 0.996797 0.995021 0.993334 0.991793 0.990437 0.989279 0.988312 0.987515 0.986857 0.986306 0.985833 0.985412 0.985027 0.984664 0.984313 0.983969 0.98363 0.983292 0.982956 0.982619 0.982281 0.981943 0.981604 0.981263 0.98092 0.980575 0.980228 0.979878 0.979525 0.979168 0.978808 0.978443 0.978073 0.977698 0.977316 0.976927 0.976531 0.976125 0.97571 0.975282 0.974842 0.974385 0.97391 0.973411 0.972891 0.972346 0.971746 0.971068 0.970453 0.969838 0.96882 0.966813 0.962662 0.962662 
1.01845 1.01913 1.01824 1.0178 1.01837 1.01827 1.01804 1.01802 1.01803 1.01799 1.01795 1.01792 1.0179 1.01787 1.01785 1.01784 1.01782 1.01781 1.0178 1.01779 1.01778 1.01778 1.01778 1.01779 1.0178 1.01781 1.01782 1.01784 1.01785 1.01787 1.0179 1.01792 1.01794 1.01796 1.01798 1.018 1.01801 1.01802 1.01803 1.01803 1.01803 1.01802 1.01801 1.01799 1.01795 1.01791 1.01785 1.01778 1.01767 1.01754 1.01736 1.01714 1.01686 1.01651 1.01611 1.01565 1.01513 1.01456 1.01395 1.01331 1.01265 1.01196 1.01125 1.01051 1.00975 1.00893 1.00806 1.00711 1.00605 1.00488 1.00356 1.00208 1.00047 0.998742 0.996958 0.995183 0.993487 0.991929 0.990551 0.989369 0.988381 0.987565 0.986892 0.986329 0.985848 0.985422 0.985033 0.984667 0.984315 0.983971 0.98363 0.983292 0.982955 0.982618 0.98228 0.981941 0.981601 0.981259 0.980916 0.980571 0.980223 0.979872 0.979518 0.979161 0.9788 0.978434 0.978064 0.977687 0.977305 0.976915 0.976518 0.976112 0.975695 0.975267 0.974825 0.974368 0.973894 0.973398 0.972872 0.972318 0.971747 0.971128 0.970438 0.969616 0.968237 0.967043 0.966084 0.966084 
1.01937 1.01829 1.01786 1.01849 1.01835 1.018 1.01803 1.01807 1.01801 1.01796 1.01794 1.01791 1.01789 1.01787 1.01785 1.01784 1.01782 1.01782 1.01781 1.01781 1.01781 1.01782 1.01783 1.01785 1.01787 1.01789 1.01792 1.01795 1.01798 1.01802 1.01805 1.01809 1.01813 1.01816 1.0182 1.01823 1.01825 1.01827 1.01828 1.01829 1.01829 1.01828 1.01827 1.01824 1.0182 1.01815 1.01809 1.018 1.01788 1.01773 1.01754 1.01729 1.01699 1.01663 1.01621 1.01572 1.01519 1.0146 1.01398 1.01332 1.01264 1.01195 1.01123 1.01048 1.00971 1.0089 1.00804 1.0071 1.00607 1.00491 1.00362 1.00218 1.0006 0.998892 0.99712 0.995346 0.99364 0.992065 0.990665 0.989461 0.988451 0.987616 0.986929 0.986355 0.985866 0.985435 0.985043 0.984675 0.984322 0.983976 0.983635 0.983297 0.982959 0.982621 0.982283 0.981944 0.981603 0.981261 0.980918 0.980572 0.980224 0.979873 0.979518 0.979161 0.978799 0.978433 0.978062 0.977685 0.977303 0.976913 0.976516 0.976109 0.975693 0.975265 0.974825 0.974369 0.973896 0.973404 0.97289 0.972342 0.971762 0.971153 0.970461 0.9697 0.968689 0.967693 0.967147 0.967147 
1.01788 1.0182 1.01839 1.01826 1.018 1.01808 1.0181 1.01801 1.01796 1.01795 1.01793 1.0179 1.01788 1.01787 1.01785 1.01784 1.01784 1.01784 1.01784 1.01785 1.01786 1.01788 1.01791 1.01794 1.01798 1.01802 1.01807 1.01812 1.01817 1.01823 1.01829 1.01834 1.0184 1.01845 1.0185 1.01854 1.01858 1.01861 1.01863 1.01864 1.01865 1.01864 1.01862 1.01859 1.01855 1.01849 1.01841 1.01831 1.01817 1.01801 1.01779 1.01753 1.01721 1.01682 1.01637 1.01586 1.0153 1.01469 1.01405 1.01337 1.01268 1.01196 1.01123 1.01048 1.0097 1.00889 1.00803 1.0071 1.00609 1.00496 1.0037 1.00229 1.00073 0.999047 0.997285 0.99551 0.993794 0.992202 0.99078 0.989553 0.988523 0.987671 0.986969 0.986385 0.985889 0.985453 0.985057 0.984687 0.984333 0.983986 0.983645 0.983306 0.982968 0.98263 0.982291 0.981951 0.981611 0.981269 0.980924 0.980578 0.98023 0.979879 0.979524 0.979166 0.978805 0.978438 0.978067 0.977691 0.977308 0.976919 0.976522 0.976117 0.975702 0.975276 0.974838 0.974386 0.973918 0.97343 0.972922 0.972392 0.971829 0.97123 0.970548 0.969811 0.969121 0.968323 0.967597 0.967597 
1.01805 1.01817 1.01818 1.01804 1.01808 1.0181 1.01801 1.01797 1.01797 1.01794 1.01791 1.0179 1.01788 1.01787 1.01786 1.01786 1.01786 1.01787 1.01789 1.01791 1.01794 1.01798 1.01803 1.01808 1.01814 1.01821 1.01828 1.01836 1.01844 1.01853 1.01861 1.01869 1.01876 1.01884 1.0189 1.01896 1.01901 1.01905 1.01908 1.01909 1.0191 1.01909 1.01907 1.01903 1.01898 1.01891 1.01882 1.0187 1.01856 1.01837 1.01813 1.01785 1.0175 1.01709 1.01661 1.01608 1.01549 1.01485 1.01418 1.01348 1.01276 1.01202 1.01127 1.01051 1.00972 1.0089 1.00804 1.00713 1.00613 1.00503 1.00379 1.00241 1.00087 0.999205 0.997452 0.995676 0.993949 0.992339 0.990896 0.989647 0.988597 0.987727 0.987012 0.986418 0.985915 0.985474 0.985076 0.984704 0.984348 0.984001 0.983659 0.98332 0.982981 0.982643 0.982304 0.981964 0.981623 0.981281 0.980936 0.98059 0.980241 0.97989 0.979536 0.979178 0.978816 0.97845 0.97808 0.977704 0.977322 0.976933 0.976538 0.976134 0.975721 0.975298 0.974863 0.974415 0.973953 0.973474 0.972975 0.972455 0.971907 0.97133 0.970722 0.970054 0.969412 0.968756 0.968061 0.968061 
1.01816 1.01806 1.01803 1.01805 1.01807 1.018 1.01797 1.01797 1.01795 1.01792 1.0179 1.01789 1.01788 1.01788 1.01788 1.01789 1.01791 1.01793 1.01797 1.01801 1.01806 1.01813 1.0182 1.01829 1.01838 1.01848 1.01858 1.01869 1.0188 1.01892 1.01902 1.01913 1.01923 1.01932 1.0194 1.01948 1.01954 1.01958 1.01962 1.01964 1.01964 1.01963 1.01961 1.01957 1.01951 1.01943 1.01932 1.01919 1.01902 1.01882 1.01856 1.01825 1.01788 1.01744 1.01693 1.01636 1.01574 1.01507 1.01437 1.01364 1.01289 1.01213 1.01136 1.01057 1.00977 1.00894 1.00808 1.00717 1.00619 1.0051 1.00389 1.00253 1.00102 0.999368 0.997622 0.995843 0.994105 0.992477 0.991013 0.989743 0.988672 0.987787 0.987058 0.986455 0.985945 0.9855 0.985099 0.984725 0.984368 0.98402 0.983678 0.983338 0.982999 0.98266 0.982321 0.981981 0.98164 0.981298 0.980953 0.980607 0.980258 0.979907 0.979553 0.979195 0.978834 0.978468 0.978098 0.977723 0.977342 0.976955 0.976561 0.976159 0.975748 0.975328 0.974898 0.974455 0.973999 0.973529 0.973041 0.972536 0.972007 0.97145 0.970883 0.970293 0.969673 0.969086 0.968505 0.968505 
1.01798 1.018 1.01802 1.01802 1.01799 1.01797 1.01797 1.01794 1.01792 1.01791 1.0179 1.0179 1.0179 1.0179 1.01792 1.01794 1.01798 1.01803 1.01809 1.01816 1.01824 1.01834 1.01845 1.01857 1.0187 1.01884 1.01898 1.01912 1.01927 1.01941 1.01954 1.01967 1.01979 1.0199 1.02 1.02008 1.02015 1.0202 1.02024 1.02026 1.02027 1.02025 1.02022 1.02017 1.0201 1.02001 1.0199 1.01975 1.01957 1.01934 1.01907 1.01873 1.01833 1.01787 1.01733 1.01673 1.01608 1.01538 1.01464 1.01387 1.01309 1.01229 1.01149 1.01068 1.00986 1.00902 1.00815 1.00724 1.00627 1.0052 1.00401 1.00267 1.00117 0.999537 0.997795 0.996012 0.994262 0.992616 0.991131 0.98984 0.98875 0.987848 0.987108 0.986496 0.985979 0.98553 0.985126 0.984751 0.984392 0.984044 0.983701 0.983361 0.983022 0.982683 0.982344 0.982004 0.981662 0.98132 0.980975 0.980629 0.98028 0.979929 0.979575 0.979218 0.978857 0.978492 0.978123 0.977748 0.977368 0.976983 0.976591 0.976191 0.975783 0.975367 0.974941 0.974504 0.974055 0.973593 0.973117 0.972624 0.972116 0.971589 0.971044 0.970496 0.969928 0.969372 0.968844 0.968844 
1.01794 1.01796 1.01797 1.01796 1.01795 1.01795 1.01793 1.01792 1.01791 1.01791 1.0179 1.01791 1.01792 1.01795 1.01798 1.01803 1.01809 1.01817 1.01826 1.01837 1.0185 1.01863 1.01878 1.01895 1.01912 1.01929 1.01947 1.01965 1.01982 1.01999 1.02015 1.0203 1.02043 1.02055 1.02066 1.02075 1.02082 1.02088 1.02091 1.02093 1.02093 1.02091 1.02088 1.02082 1.02074 1.02064 1.02051 1.02036 1.02016 1.01992 1.01963 1.01927 1.01885 1.01836 1.0178 1.01717 1.01649 1.01575 1.01497 1.01417 1.01335 1.01252 1.01168 1.01084 1.00999 1.00914 1.00826 1.00734 1.00637 1.00531 1.00414 1.00282 1.00134 0.999711 0.997972 0.996183 0.99442 0.992755 0.991249 0.989938 0.988829 0.987913 0.98716 0.986539 0.986017 0.985564 0.985158 0.984781 0.984421 0.984072 0.983729 0.983389 0.983049 0.98271 0.982371 0.982031 0.981689 0.981347 0.981002 0.980656 0.980308 0.979957 0.979603 0.979246 0.978886 0.978521 0.978153 0.97778 0.977401 0.977017 0.976627 0.97623 0.975826 0.975413 0.974991 0.97456 0.974118 0.973665 0.9732 0.97272 0.972228 0.971725 0.971206 0.97068 0.970154 0.969627 0.969117 0.969117 
1.01792 1.01792 1.01792 1.01792 1.01792 1.01792 1.01791 1.01791 1.01791 1.01791 1.01792 1.01794 1.01798 1.01802 1.01808 1.01816 1.01826 1.01837 1.01851 1.01866 1.01883 1.01901 1.01921 1.01942 1.01963 1.01984 1.02005 1.02026 1.02046 1.02065 1.02082 1.02098 1.02113 1.02125 1.02136 1.02145 1.02152 1.02157 1.0216 1.02161 1.0216 1.02158 1.02153 1.02147 1.02138 1.02127 1.02114 1.02097 1.02077 1.02052 1.02021 1.01985 1.01941 1.0189 1.01832 1.01767 1.01696 1.01619 1.01538 1.01454 1.01368 1.01281 1.01193 1.01106 1.01018 1.0093 1.0084 1.00748 1.0065 1.00545 1.00429 1.00298 1.00151 0.999892 0.998154 0.996357 0.994579 0.992895 0.991369 0.990037 0.98891 0.987979 0.987215 0.986586 0.986058 0.985602 0.985193 0.984815 0.984454 0.984105 0.983761 0.983421 0.983081 0.982742 0.982403 0.982062 0.981721 0.981378 0.981034 0.980688 0.98034 0.979989 0.979636 0.979279 0.97892 0.978556 0.978189 0.977817 0.97744 0.977058 0.97667 0.976275 0.975874 0.975465 0.975048 0.974623 0.974188 0.973743 0.973288 0.972822 0.972344 0.971857 0.971362 0.970857 0.970354 0.969852 0.969357 0.969357 
1.01788 1.01789 1.01789 1.01789 1.01789 1.01789 1.01789 1.0179 1.01791 1.01793 1.01796 1.018 1.01806 1.01814 1.01823 1.01835 1.01849 1.01865 1.01883 1.01903 1.01925 1.01949 1.01973 1.01998 1.02023 1.02047 1.02071 1.02094 1.02115 1.02135 1.02153 1.02169 1.02183 1.02195 1.02205 1.02213 1.02219 1.02223 1.02225 1.02225 1.02223 1.0222 1.02215 1.02208 1.02198 1.02187 1.02173 1.02156 1.02135 1.0211 1.02079 1.02042 1.01998 1.01946 1.01887 1.0182 1.01746 1.01667 1.01583 1.01496 1.01406 1.01315 1.01224 1.01133 1.01041 1.0095 1.00858 1.00765 1.00667 1.00562 1.00446 1.00316 1.0017 1.00008 0.99834 0.996533 0.994739 0.993036 0.991488 0.990136 0.988992 0.988047 0.987272 0.986636 0.986103 0.985643 0.985232 0.984852 0.984492 0.984142 0.983798 0.983457 0.983118 0.982778 0.982439 0.982099 0.981757 0.981415 0.981071 0.980725 0.980377 0.980027 0.979674 0.979318 0.978959 0.978597 0.97823 0.977859 0.977484 0.977104 0.976718 0.976326 0.975928 0.975524 0.975111 0.974691 0.974263 0.973826 0.97338 0.972925 0.972461 0.971988 0.971509 0.971025 0.970538 0.970054 0.969575 0.969575 
1.01785 1.01786 1.01786 1.01787 1.01787 1.01788 1.01789 1.01791 1.01793 1.01797 1.01802 1.01809 1.01818 1.0183 1.01844 1.0186 1.01879 1.01901 1.01924 1.0195 1.01977 1.02005 1.02033 1.02061 1.02089 1.02116 1.02141 1.02165 1.02186 1.02205 1.02223 1.02237 1.0225 1.02261 1.02269 1.02275 1.02279 1.02282 1.02283 1.02282 1.02279 1.02274 1.02268 1.02261 1.02251 1.02239 1.02225 1.02208 1.02188 1.02163 1.02132 1.02095 1.02051 1.02 1.0194 1.01873 1.01798 1.01717 1.01631 1.01541 1.01448 1.01354 1.01259 1.01164 1.0107 1.00975 1.00881 1.00786 1.00687 1.00581 1.00465 1.00336 1.0019 1.00028 0.998531 0.996711 0.9949 0.993176 0.991607 0.990235 0.989075 0.988115 0.987331 0.986687 0.986149 0.985686 0.985274 0.984893 0.984532 0.984182 0.983838 0.983498 0.983158 0.982819 0.98248 0.98214 0.981799 0.981456 0.981112 0.980767 0.980419 0.980069 0.979717 0.979362 0.979004 0.978642 0.978277 0.977908 0.977534 0.977156 0.976772 0.976383 0.975989 0.975587 0.97518 0.974765 0.974343 0.973913 0.973476 0.97303 0.972578 0.972118 0.971652 0.971183 0.970711 0.97024 0.969774 0.969774 
1.01783 1.01783 1.01784 1.01785 1.01786 1.01787 1.0179 1.01793 1.01798 1.01804 1.01812 1.01823 1.01836 1.01852 1.01871 1.01893 1.01918 1.01945 1.01974 1.02004 1.02036 1.02068 1.02099 1.0213 1.02159 1.02186 1.02211 1.02234 1.02254 1.02272 1.02287 1.023 1.0231 1.02318 1.02324 1.02328 1.02331 1.02331 1.0233 1.02328 1.02324 1.02319 1.02312 1.02304 1.02294 1.02282 1.02268 1.02252 1.02231 1.02207 1.02178 1.02142 1.02099 1.02049 1.0199 1.01923 1.01848 1.01767 1.0168 1.01588 1.01493 1.01396 1.01298 1.012 1.01102 1.01005 1.00908 1.0081 1.0071 1.00603 1.00487 1.00357 1.00211 1.00049 0.998726 0.996891 0.99506 0.993315 0.991724 0.990332 0.989155 0.988183 0.987389 0.986739 0.986197 0.985732 0.985318 0.984937 0.984576 0.984226 0.983882 0.983542 0.983203 0.982864 0.982525 0.982185 0.981844 0.981502 0.981159 0.980814 0.980466 0.980117 0.979765 0.979411 0.979054 0.978693 0.978329 0.977961 0.977589 0.977213 0.976832 0.976445 0.976054 0.975657 0.975253 0.974843 0.974427 0.974004 0.973574 0.973138 0.972695 0.972246 0.971792 0.971334 0.970875 0.970415 0.969959 0.969959 
1.01782 1.01781 1.01782 1.01784 1.01786 1.01788 1.01792 1.01798 1.01805 1.01815 1.01827 1.01842 1.0186 1.01882 1.01907 1.01934 1.01965 1.01997 1.02031 1.02066 1.02101 1.02136 1.02169 1.022 1.02229 1.02255 1.02278 1.02298 1.02316 1.02331 1.02343 1.02352 1.0236 1.02365 1.02369 1.0237 1.0237 1.02369 1.02366 1.02362 1.02357 1.02351 1.02344 1.02335 1.02325 1.02314 1.023 1.02284 1.02265 1.02242 1.02214 1.02179 1.02138 1.0209 1.02033 1.01967 1.01894 1.01813 1.01726 1.01634 1.01538 1.01439 1.01339 1.01238 1.01138 1.01037 1.00938 1.00838 1.00736 1.00628 1.00511 1.0038 1.00233 1.0007 0.998924 0.99707 0.995217 0.993449 0.991837 0.990425 0.989232 0.988248 0.987445 0.986789 0.986244 0.985777 0.985362 0.984981 0.98462 0.984271 0.983928 0.983589 0.98325 0.982912 0.982574 0.982235 0.981894 0.981553 0.98121 0.980865 0.980518 0.98017 0.979819 0.979465 0.979108 0.978749 0.978386 0.97802 0.97765 0.977275 0.976896 0.976513 0.976124 0.975731 0.975331 0.974926 0.974515 0.974098 0.973675 0.973247 0.972812 0.972372 0.971928 0.971481 0.971032 0.970582 0.970134 0.970134 
1.01781 1.0178 1.01782 1.01784 1.01787 1.01791 1.01797 1.01806 1.01816 1.0183 1.01847 1.01867 1.01891 1.01919 1.0195 1.01984 1.02019 1.02057 1.02095 1.02133 1.0217 1.02205 1.02237 1.02267 1.02294 1.02317 1.02337 1.02354 1.02368 1.02379 1.02388 1.02394 1.02398 1.024 1.02401 1.024 1.02398 1.02395 1.02391 1.02386 1.02379 1.02372 1.02364 1.02355 1.02345 1.02334 1.02321 1.02306 1.02288 1.02266 1.02239 1.02207 1.02168 1.02122 1.02067 1.02004 1.01932 1.01854 1.01768 1.01676 1.0158 1.01481 1.0138 1.01277 1.01174 1.01072 1.0097 1.00868 1.00764 1.00655 1.00537 1.00405 1.00257 1.00091 0.999122 0.997246 0.995369 0.993576 0.991941 0.990511 0.989302 0.988306 0.987495 0.986834 0.986286 0.985818 0.985404 0.985024 0.984664 0.984317 0.983975 0.983637 0.9833 0.982963 0.982626 0.982288 0.981948 0.981607 0.981265 0.980921 0.980575 0.980227 0.979877 0.979524 0.979168 0.97881 0.978449 0.978084 0.977715 0.977343 0.976966 0.976585 0.9762 0.975809 0.975414 0.975013 0.974607 0.974196 0.973779 0.973357 0.97293 0.972499 0.972063 0.971624 0.971183 0.970742 0.970302 0.970302 
1.01781 1.0178 1.01782 1.01785 1.0179 1.01797 1.01806 1.01817 1.01832 1.01851 1.01873 1.019 1.0193 1.01964 1.02001 1.0204 1.0208 1.02121 1.02162 1.02201 1.02238 1.02272 1.02302 1.02329 1.02352 1.02371 1.02387 1.024 1.02409 1.02416 1.02421 1.02424 1.02425 1.02424 1.02423 1.0242 1.02416 1.02411 1.02405 1.02399 1.02391 1.02384 1.02375 1.02366 1.02356 1.02345 1.02332 1.02317 1.023 1.0228 1.02255 1.02224 1.02188 1.02144 1.02092 1.02032 1.01963 1.01887 1.01803 1.01714 1.01619 1.0152 1.01418 1.01315 1.01211 1.01107 1.01004 1.009 1.00794 1.00683 1.00563 1.0043 1.0028 1.00113 0.999314 0.997413 0.99551 0.993691 0.992033 0.990583 0.98936 0.988353 0.987535 0.986871 0.986321 0.985853 0.98544 0.985062 0.984705 0.98436 0.984021 0.983685 0.98335 0.983016 0.98268 0.982343 0.982005 0.981666 0.981325 0.980981 0.980636 0.980289 0.97994 0.979588 0.979233 0.978876 0.978516 0.978153 0.977786 0.977415 0.977041 0.976662 0.97628 0.975893 0.975501 0.975104 0.974703 0.974297 0.973885 0.97347 0.973049 0.972625 0.972196 0.971765 0.971332 0.970897 0.970464 0.970464 
1.01783 1.01781 1.01784 1.01789 1.01796 1.01805 1.01818 1.01834 1.01854 1.01878 1.01907 1.01939 1.01976 1.02016 1.02058 1.02101 1.02145 1.02188 1.02229 1.02267 1.02302 1.02333 1.0236 1.02382 1.024 1.02415 1.02426 1.02434 1.02439 1.02442 1.02443 1.02443 1.02442 1.02439 1.02435 1.0243 1.02424 1.02418 1.02411 1.02403 1.02395 1.02387 1.02378 1.02368 1.02358 1.02347 1.02334 1.0232 1.02304 1.02284 1.02261 1.02233 1.02198 1.02157 1.02108 1.02051 1.01986 1.01912 1.01832 1.01744 1.01651 1.01554 1.01453 1.0135 1.01246 1.01141 1.01037 1.00932 1.00825 1.00712 1.00591 1.00455 1.00303 1.00134 0.999495 0.997565 0.995633 0.993788 0.992107 0.990638 0.989399 0.988383 0.98756 0.986892 0.986343 0.985876 0.985466 0.985091 0.984738 0.984397 0.984062 0.98373 0.983399 0.983067 0.982735 0.982401 0.982065 0.981727 0.981387 0.981046 0.980702 0.980356 0.980007 0.979657 0.979303 0.978947 0.978588 0.978226 0.977861 0.977493 0.97712 0.976744 0.976364 0.97598 0.975592 0.975199 0.974802 0.9744 0.973994 0.973584 0.973169 0.972751 0.972329 0.971905 0.971478 0.97105 0.970622 0.970622 
1.01786 1.01783 1.01788 1.01794 1.01804 1.01817 1.01834 1.01855 1.01881 1.01912 1.01947 1.01986 1.02029 1.02074 1.0212 1.02166 1.02211 1.02254 1.02293 1.02329 1.0236 1.02386 1.02408 1.02425 1.02438 1.02447 1.02453 1.02457 1.02458 1.02458 1.02457 1.02454 1.0245 1.02445 1.0244 1.02433 1.02426 1.02419 1.0241 1.02402 1.02393 1.02384 1.02374 1.02365 1.02354 1.02343 1.0233 1.02316 1.023 1.02282 1.02259 1.02233 1.02201 1.02162 1.02116 1.02062 1.02 1.0193 1.01853 1.01768 1.01678 1.01583 1.01483 1.01381 1.01278 1.01173 1.01068 1.00962 1.00854 1.0074 1.00617 1.0048 1.00325 1.00153 0.999655 0.997694 0.995731 0.993859 0.992153 0.990666 0.989414 0.988389 0.987561 0.986893 0.986345 0.985882 0.985476 0.985106 0.984759 0.984423 0.984095 0.983768 0.983443 0.983116 0.982788 0.982458 0.982125 0.98179 0.981453 0.981113 0.980771 0.980427 0.98008 0.97973 0.979378 0.979023 0.978666 0.978305 0.977942 0.977575 0.977205 0.976831 0.976454 0.976073 0.975687 0.975298 0.974905 0.974507 0.974106 0.973701 0.973291 0.972878 0.972462 0.972043 0.971622 0.9712 0.970777 0.970777 
1.01793 1.01788 1.01794 1.01803 1.01816 1.01834 1.01856 1.01883 1.01915 1.01952 1.01994 1.02039 1.02086 1.02135 1.02184 1.02231 1.02275 1.02316 1.02352 1.02383 1.02409 1.02429 1.02445 1.02457 1.02464 1.02469 1.02471 1.02471 1.0247 1.02467 1.02463 1.02459 1.02453 1.02447 1.02439 1.02432 1.02423 1.02415 1.02405 1.02396 1.02386 1.02377 1.02367 1.02356 1.02345 1.02334 1.02321 1.02307 1.02291 1.02273 1.02252 1.02227 1.02197 1.0216 1.02117 1.02067 1.02008 1.01941 1.01867 1.01786 1.01698 1.01605 1.01508 1.01407 1.01305 1.01201 1.01096 1.0099 1.00881 1.00766 1.00641 1.00502 1.00344 1.00169 0.999785 0.99779 0.995795 0.993894 0.992166 0.99066 0.989397 0.988364 0.987534 0.986866 0.98632 0.985862 0.985463 0.985101 0.984761 0.984434 0.984114 0.983796 0.983477 0.983158 0.982836 0.982512 0.982184 0.981854 0.98152 0.981184 0.980844 0.980501 0.980156 0.979808 0.979458 0.979104 0.978748 0.978389 0.978027 0.977662 0.977294 0.976923 0.976548 0.976169 0.975787 0.975401 0.975011 0.974618 0.974221 0.97382 0.973415 0.973007 0.972596 0.972182 0.971766 0.971349 0.970931 0.970931 
1.01802 1.01796 1.01804 1.01816 1.01833 1.01855 1.01883 1.01917 1.01956 1.01999 1.02046 1.02096 1.02148 1.02198 1.02247 1.02293 1.02335 1.02371 1.02402 1.02428 1.02448 1.02462 1.02472 1.02479 1.02482 1.02482 1.02481 1.02479 1.02475 1.0247 1.02465 1.02459 1.02452 1.02444 1.02436 1.02427 1.02417 1.02407 1.02397 1.02387 1.02377 1.02367 1.02356 1.02345 1.02333 1.02321 1.02308 1.02294 1.02278 1.02261 1.0224 1.02216 1.02188 1.02154 1.02114 1.02066 1.0201 1.01947 1.01876 1.01797 1.01712 1.01622 1.01526 1.01428 1.01327 1.01224 1.0112 1.01014 1.00904 1.00788 1.00662 1.0052 1.0036 1.00181 0.999872 0.997843 0.995816 0.993886 0.992135 0.990613 0.989339 0.988301 0.987469 0.986803 0.986263 0.985812 0.985421 0.985069 0.98474 0.984424 0.984114 0.983807 0.983499 0.98319 0.982877 0.982561 0.98224 0.981916 0.981587 0.981255 0.980919 0.980579 0.980236 0.97989 0.979542 0.97919 0.978835 0.978478 0.978118 0.977754 0.977388 0.977019 0.976646 0.97627 0.975891 0.975508 0.975122 0.974732 0.974338 0.973941 0.973541 0.973137 0.972731 0.972322 0.97191 0.971497 0.971084 0.971084 
1.01816 1.01807 1.01817 1.01833 1.01855 1.01883 1.01917 1.01957 1.02002 1.02051 1.02103 1.02157 1.0221 1.02261 1.02308 1.02351 1.02388 1.02419 1.02444 1.02463 1.02477 1.02486 1.02491 1.02493 1.02492 1.02489 1.02486 1.02481 1.02476 1.0247 1.02463 1.02456 1.02448 1.02439 1.02429 1.02419 1.02409 1.02398 1.02388 1.02377 1.02366 1.02355 1.02343 1.02332 1.02319 1.02307 1.02293 1.02279 1.02263 1.02245 1.02226 1.02203 1.02176 1.02144 1.02106 1.02061 1.02009 1.01948 1.0188 1.01804 1.01721 1.01633 1.0154 1.01443 1.01343 1.01242 1.01138 1.01033 1.00923 1.00806 1.00678 1.00534 1.00371 1.00189 0.999908 0.997843 0.995783 0.993827 0.992055 0.990518 0.989235 0.988193 0.987362 0.9867 0.986166 0.985725 0.985345 0.985004 0.984688 0.984386 0.98409 0.983797 0.983503 0.983206 0.982906 0.9826 0.982289 0.981974 0.981652 0.981326 0.980995 0.980659 0.98032 0.979976 0.97963 0.97928 0.978927 0.978571 0.978213 0.977851 0.977487 0.97712 0.976749 0.976376 0.975999 0.975619 0.975236 0.974849 0.974459 0.974066 0.973669 0.97327 0.972867 0.972462 0.972055 0.971646 0.971236 0.971236 
1.01834 1.01822 1.01835 1.01855 1.01882 1.01916 1.01956 1.02002 1.02053 1.02107 1.02163 1.02218 1.02271 1.02319 1.02363 1.02401 1.02432 1.02457 1.02476 1.02489 1.02497 1.02501 1.02502 1.025 1.02496 1.02492 1.02487 1.02481 1.02474 1.02467 1.0246 1.02451 1.02442 1.02432 1.02422 1.02411 1.024 1.02388 1.02377 1.02365 1.02354 1.02342 1.0233 1.02318 1.02305 1.02291 1.02277 1.02262 1.02246 1.02229 1.0221 1.02188 1.02163 1.02133 1.02097 1.02055 1.02004 1.01946 1.0188 1.01806 1.01726 1.01639 1.01548 1.01453 1.01354 1.01254 1.01151 1.01046 1.00936 1.00818 1.00688 1.00541 1.00375 1.0019 0.999882 0.997782 0.995691 0.99371 0.991919 0.99037 0.98908 0.988037 0.987208 0.986552 0.986027 0.985596 0.985228 0.984903 0.984602 0.984316 0.984037 0.983761 0.983484 0.983203 0.982918 0.982627 0.982329 0.982024 0.981713 0.981395 0.98107 0.98074 0.980405 0.980065 0.979722 0.979374 0.979023 0.978669 0.978313 0.977953 0.977591 0.977225 0.976857 0.976486 0.976111 0.975734 0.975353 0.97497 0.974583 0.974193 0.9738 0.973405 0.973006 0.972605 0.972201 0.971796 0.971389 0.971389 
1.01858 1.01843 1.01859 1.01883 1.01915 1.01955 1.02001 1.02053 1.02108 1.02166 1.02223 1.02277 1.02328 1.02373 1.02411 1.02443 1.02468 1.02487 1.02499 1.02507 1.0251 1.0251 1.02507 1.02503 1.02498 1.02492 1.02485 1.02479 1.02471 1.02464 1.02455 1.02446 1.02436 1.02425 1.02413 1.02401 1.02389 1.02377 1.02365 1.02353 1.02341 1.02329 1.02316 1.02303 1.0229 1.02276 1.02261 1.02246 1.0223 1.02213 1.02194 1.02174 1.0215 1.02121 1.02088 1.02047 1.01999 1.01942 1.01878 1.01806 1.01727 1.01642 1.01552 1.01458 1.01361 1.01261 1.01159 1.01054 1.00944 1.00825 1.00692 1.00542 1.00373 1.00184 0.999787 0.997653 0.995534 0.99353 0.991724 0.990166 0.988873 0.987831 0.987006 0.986358 0.985843 0.985424 0.985071 0.984761 0.984478 0.98421 0.983951 0.983695 0.983437 0.983177 0.98291 0.982636 0.982355 0.982065 0.981766 0.981459 0.981143 0.980821 0.980492 0.980157 0.979817 0.979472 0.979124 0.978772 0.978417 0.97806 0.977699 0.977336 0.976969 0.9766 0.976228 0.975853 0.975475 0.975095 0.974711 0.974324 0.973934 0.973542 0.973147 0.972749 0.972349 0.971947 0.971544 0.971544 
1.01889 1.01869 1.01888 1.01916 1.01954 1.01999 1.02051 1.02107 1.02166 1.02224 1.02281 1.02333 1.0238 1.02419 1.02452 1.02477 1.02496 1.02508 1.02515 1.02518 1.02517 1.02514 1.02509 1.02503 1.02496 1.0249 1.02483 1.02475 1.02468 1.02459 1.0245 1.0244 1.02429 1.02417 1.02404 1.02392 1.02379 1.02366 1.02354 1.02342 1.02329 1.02316 1.02303 1.0229 1.02276 1.02261 1.02246 1.02231 1.02215 1.02198 1.0218 1.02161 1.02138 1.02111 1.02078 1.02039 1.01993 1.01938 1.01875 1.01804 1.01726 1.01642 1.01553 1.0146 1.01363 1.01264 1.01163 1.01057 1.00946 1.00825 1.0069 1.00537 1.00364 1.00171 0.999619 0.997453 0.99531 0.993288 0.991471 0.989908 0.988615 0.987577 0.986759 0.98612 0.985616 0.98521 0.984872 0.984578 0.984314 0.984067 0.983829 0.983595 0.983361 0.983123 0.982878 0.982626 0.982364 0.982092 0.981809 0.981516 0.981212 0.980899 0.980578 0.980249 0.979914 0.979574 0.979229 0.978879 0.978527 0.978171 0.977812 0.977451 0.977086 0.976719 0.97635 0.975977 0.975602 0.975223 0.974842 0.974458 0.974072 0.973682 0.97329 0.972896 0.972499 0.9721 0.9717 0.9717 
1.01928 1.01902 1.01924 1.01957 1.01999 1.02049 1.02104 1.02164 1.02223 1.02282 1.02335 1.02384 1.02425 1.02458 1.02484 1.02503 1.02516 1.02523 1.02525 1.02524 1.0252 1.02515 1.02508 1.02501 1.02494 1.02487 1.02479 1.02472 1.02463 1.02454 1.02444 1.02433 1.02421 1.02408 1.02395 1.02382 1.02368 1.02356 1.02343 1.0233 1.02318 1.02305 1.02292 1.02278 1.02264 1.02249 1.02234 1.02218 1.02202 1.02186 1.02169 1.02149 1.02128 1.02102 1.0207 1.02033 1.01987 1.01933 1.01871 1.01801 1.01723 1.0164 1.01552 1.01459 1.01363 1.01264 1.01162 1.01056 1.00943 1.00819 1.00681 1.00524 1.00347 1.0015 0.999377 0.997181 0.995017 0.992983 0.991161 0.9896 0.988311 0.98728 0.986471 0.985842 0.98535 0.984958 0.984635 0.984358 0.984113 0.983887 0.983672 0.983462 0.983252 0.983039 0.98282 0.982592 0.982353 0.982103 0.981839 0.981563 0.981275 0.980974 0.980663 0.980343 0.980014 0.979678 0.979337 0.978991 0.978641 0.978287 0.97793 0.977571 0.977208 0.976843 0.976475 0.976105 0.975732 0.975356 0.974978 0.974597 0.974213 0.973826 0.973437 0.973045 0.972651 0.972255 0.971858 0.971858 