# vtk DataFile Version 3.0
LBM simulation at step 170
ASCII
DATASET STRUCTURED_POINTS
DIMENSIONS 128 128 1
ORIGIN 0 0 0
SPACING 1 1 1
POINT_DATA 16384
SCALARS density float
LOOKUP_TABLE default
0.962325 1.02803 1.03019 1.02712 1.02764 1.02811 1.02824 1.02839 1.02859 1.02876 1.02892 1.02906 1.02917 1.02927 1.02934 1.02939 1.02942 1.02943 1.02942 1.02939 1.02934 1.02928 1.0292 1.02909 1.02897 1.02883 1.02865 1.02844 1.0282 1.02792 1.02759 1.02722 1.0268 1.02634 1.02584 1.0253 1.02474 1.02416 1.02356 1.02296 1.02237 1.02177 1.02119 1.02062 1.02007 1.01952 1.019 1.01848 1.01798 1.01749 1.01701 1.01654 1.01607 1.01561 1.01516 1.01471 1.01426 1.01381 1.01336 1.01291 1.01246 1.01201 1.01155 1.01109 1.01062 1.01014 1.00965 1.00916 1.00865 1.00813 1.00759 1.00704 1.00647 1.00588 1.00528 1.00466 1.00402 1.00338 1.00272 1.00206 1.0014 1.00074 1.00008 0.999435 0.99879 0.998145 0.997492 0.996821 0.996115 0.995356 0.994522 0.993593 0.992551 0.991386 0.9901 0.98871 0.987245 0.98575 0.984271 0.982857 0.981549 0.980375 0.979348 0.978469 0.977727 0.977101 0.97657 0.976112 0.975705 0.975331 0.974977 0.974632 0.974287 0.973938 0.973579 0.973208 0.972822 0.972417 0.971989 0.971537 0.971038 0.970473 0.969882 0.96959 0.96779 0.96653 0.983986 0.983986 
1.03165 1.02886 1.02528 1.02685 1.02798 1.02816 1.02826 1.02842 1.02858 1.02874 1.02888 1.02901 1.02911 1.0292 1.02927 1.02932 1.02935 1.02936 1.02935 1.02932 1.02928 1.02922 1.02914 1.02904 1.02891 1.02877 1.02859 1.02838 1.02814 1.02785 1.02752 1.02714 1.02672 1.02626 1.02576 1.02523 1.02467 1.02409 1.0235 1.02291 1.02232 1.02173 1.02115 1.02059 1.02004 1.0195 1.01897 1.01846 1.01796 1.01746 1.01698 1.01651 1.01604 1.01558 1.01512 1.01467 1.01421 1.01376 1.01331 1.01286 1.0124 1.01194 1.01148 1.01101 1.01054 1.01006 1.00957 1.00907 1.00856 1.00804 1.0075 1.00695 1.00638 1.0058 1.0052 1.00458 1.00395 1.00331 1.00266 1.002 1.00134 1.00069 1.00003 0.999383 0.998734 0.998084 0.997425 0.996747 0.996035 0.995273 0.994442 0.993522 0.992497 0.991357 0.990102 0.988746 0.987314 0.985845 0.984384 0.982977 0.981665 0.980478 0.979433 0.978532 0.977767 0.977121 0.976572 0.976098 0.975679 0.975296 0.974934 0.974582 0.974231 0.973876 0.973511 0.973132 0.972736 0.972319 0.971878 0.971412 0.970909 0.970308 0.969522 0.968947 0.969669 0.970834 0.968982 0.968982 
1.03949 1.02597 1.02557 1.02837 1.02819 1.02799 1.02822 1.02843 1.02855 1.02867 1.02878 1.02888 1.02897 1.02905 1.02911 1.02916 1.02919 1.0292 1.0292 1.02918 1.02914 1.02909 1.02902 1.02892 1.02881 1.02866 1.02849 1.02829 1.02804 1.02776 1.02743 1.02705 1.02663 1.02617 1.02567 1.02514 1.02459 1.02402 1.02343 1.02285 1.02226 1.02168 1.02111 1.02055 1.02 1.01947 1.01894 1.01843 1.01793 1.01743 1.01695 1.01647 1.016 1.01553 1.01506 1.0146 1.01414 1.01368 1.01321 1.01275 1.01228 1.01181 1.01134 1.01086 1.01038 1.00988 1.00939 1.00888 1.00836 1.00783 1.00729 1.00673 1.00617 1.00558 1.00499 1.00438 1.00376 1.00313 1.00249 1.00184 1.0012 1.00055 0.999902 0.999256 0.99861 0.997961 0.997301 0.996623 0.995914 0.995157 0.994336 0.993432 0.992429 0.991315 0.990089 0.988761 0.987354 0.985903 0.984452 0.983047 0.981729 0.980531 0.97947 0.978552 0.977771 0.97711 0.976549 0.976067 0.97564 0.975252 0.974887 0.974532 0.974179 0.973821 0.973452 0.973069 0.972668 0.972247 0.971798 0.971303 0.970769 0.970253 0.96974 0.968983 0.968525 0.966741 0.960263 0.960263 
1.0244 1.02799 1.0302 1.02802 1.02752 1.02819 1.0284 1.02839 1.02845 1.02854 1.02862 1.02869 1.02876 1.02882 1.02887 1.02892 1.02895 1.02897 1.02897 1.02897 1.02894 1.0289 1.02883 1.02875 1.02865 1.02851 1.02835 1.02815 1.02791 1.02763 1.0273 1.02693 1.02652 1.02606 1.02557 1.02504 1.0245 1.02393 1.02336 1.02278 1.0222 1.02163 1.02106 1.02051 1.01996 1.01943 1.01891 1.01839 1.01789 1.01739 1.0169 1.01641 1.01593 1.01545 1.01497 1.0145 1.01402 1.01355 1.01307 1.01259 1.0121 1.01161 1.01112 1.01063 1.01012 1.00962 1.0091 1.00858 1.00805 1.00751 1.00696 1.0064 1.00583 1.00526 1.00467 1.00407 1.00346 1.00285 1.00222 1.0016 1.00097 1.00034 0.999705 0.999072 0.998435 0.997793 0.997139 0.996465 0.995761 0.995011 0.9942 0.993311 0.992326 0.991235 0.990034 0.98873 0.987345 0.985912 0.984472 0.983071 0.98175 0.980544 0.979472 0.978542 0.977749 0.977078 0.97651 0.976021 0.975592 0.975202 0.974837 0.974482 0.97413 0.973772 0.973404 0.973021 0.972618 0.972191 0.971742 0.971267 0.970736 0.970127 0.96958 0.969032 0.968079 0.966139 0.962066 0.962066 
1.02899 1.02892 1.02813 1.02779 1.02846 1.02844 1.02827 1.02831 1.02838 1.0284 1.02842 1.02846 1.02849 1.02853 1.02857 1.02861 1.02864 1.02866 1.02868 1.02868 1.02867 1.02864 1.02859 1.02852 1.02843 1.02831 1.02815 1.02796 1.02774 1.02746 1.02715 1.02678 1.02637 1.02593 1.02544 1.02492 1.02439 1.02383 1.02326 1.0227 1.02213 1.02156 1.021 1.02045 1.01991 1.01938 1.01886 1.01834 1.01783 1.01733 1.01683 1.01633 1.01584 1.01534 1.01485 1.01436 1.01386 1.01337 1.01287 1.01236 1.01186 1.01135 1.01083 1.01031 1.00979 1.00926 1.00873 1.00819 1.00764 1.00709 1.00653 1.00597 1.0054 1.00483 1.00425 1.00366 1.00307 1.00248 1.00188 1.00128 1.00067 1.00006 0.999453 0.998837 0.998216 0.997585 0.996939 0.996273 0.995574 0.994831 0.99403 0.993153 0.992185 0.991114 0.989936 0.988657 0.987294 0.985879 0.984451 0.983056 0.981735 0.980524 0.979445 0.978506 0.977704 0.977027 0.976453 0.975963 0.975534 0.975146 0.974783 0.974432 0.974084 0.97373 0.973365 0.972985 0.972588 0.972166 0.971713 0.971232 0.970732 0.970183 0.969562 0.968809 0.967499 0.966381 0.96551 0.96551 
1.03023 1.02846 1.02809 1.02877 1.02865 1.0283 1.02833 1.02835 1.02829 1.02823 1.02821 1.0282 1.0282 1.02821 1.02822 1.02825 1.02827 1.02829 1.02831 1.02832 1.02832 1.0283 1.02827 1.02822 1.02814 1.02803 1.0279 1.02772 1.02751 1.02725 1.02694 1.02659 1.02619 1.02575 1.02528 1.02478 1.02425 1.0237 1.02315 1.02259 1.02203 1.02148 1.02092 1.02038 1.01984 1.01931 1.01878 1.01826 1.01774 1.01723 1.01672 1.01621 1.0157 1.01519 1.01468 1.01417 1.01365 1.01313 1.01261 1.01208 1.01155 1.01101 1.01047 1.00993 1.00938 1.00883 1.00827 1.00771 1.00715 1.00659 1.00603 1.00546 1.00489 1.00432 1.00376 1.00319 1.00262 1.00205 1.00147 1.0009 1.00032 0.99974 0.999153 0.998559 0.997955 0.997339 0.996704 0.996046 0.995355 0.99462 0.993828 0.992964 0.992013 0.990962 0.989807 0.988551 0.98721 0.985813 0.984398 0.983009 0.98169 0.980475 0.97939 0.978444 0.977636 0.976955 0.97638 0.97589 0.975464 0.97508 0.974724 0.97438 0.974039 0.973692 0.973335 0.972962 0.97257 0.972157 0.97172 0.971248 0.970741 0.970205 0.969585 0.968896 0.96796 0.967046 0.966596 0.966596 
1.02906 1.02877 1.02898 1.02883 1.02853 1.02854 1.02849 1.02831 1.02819 1.0281 1.02802 1.02795 1.0279 1.02787 1.02785 1.02785 1.02786 1.02787 1.02789 1.0279 1.0279 1.0279 1.02788 1.02784 1.02778 1.02769 1.02757 1.02742 1.02722 1.02697 1.02668 1.02635 1.02596 1.02554 1.02508 1.02459 1.02408 1.02354 1.023 1.02245 1.0219 1.02136 1.02081 1.02027 1.01973 1.0192 1.01867 1.01814 1.01762 1.0171 1.01657 1.01605 1.01552 1.01499 1.01446 1.01393 1.01339 1.01284 1.01229 1.01174 1.01118 1.01061 1.01004 1.00947 1.0089 1.00833 1.00775 1.00717 1.0066 1.00603 1.00546 1.00489 1.00433 1.00377 1.00321 1.00266 1.00211 1.00157 1.00102 1.00048 0.999928 0.999375 0.998815 0.998244 0.997661 0.99706 0.996439 0.995791 0.995109 0.994384 0.993603 0.992752 0.991818 0.990788 0.989655 0.988421 0.9871 0.98572 0.984317 0.982935 0.981616 0.980399 0.979309 0.978358 0.977546 0.976862 0.976288 0.975801 0.97538 0.975005 0.974657 0.974323 0.973991 0.973655 0.973308 0.972947 0.972566 0.972163 0.971737 0.971286 0.970801 0.970278 0.969672 0.969013 0.968404 0.967694 0.967066 0.967066 
1.02953 1.02913 1.02911 1.02891 1.02885 1.02875 1.02851 1.02832 1.02817 1.028 1.02785 1.02772 1.02762 1.02754 1.02748 1.02744 1.02742 1.02742 1.02742 1.02743 1.02743 1.02743 1.02742 1.0274 1.02735 1.02728 1.02718 1.02704 1.02686 1.02663 1.02636 1.02604 1.02568 1.02527 1.02483 1.02435 1.02385 1.02334 1.02281 1.02227 1.02173 1.02119 1.02065 1.02011 1.01957 1.01904 1.01851 1.01797 1.01744 1.0169 1.01637 1.01583 1.01528 1.01473 1.01418 1.01362 1.01306 1.01248 1.01191 1.01133 1.01074 1.01015 1.00956 1.00896 1.00837 1.00777 1.00718 1.00659 1.006 1.00542 1.00485 1.00428 1.00373 1.00318 1.00264 1.0021 1.00158 1.00106 1.00054 1.00003 0.999507 0.998982 0.998448 0.997902 0.997339 0.996757 0.99615 0.995515 0.994844 0.994129 0.993361 0.992525 0.991608 0.990597 0.989485 0.988273 0.986972 0.985607 0.984214 0.982837 0.98152 0.9803 0.979205 0.97825 0.977435 0.97675 0.976178 0.975696 0.975283 0.974917 0.97458 0.974258 0.97394 0.973617 0.973283 0.972934 0.972568 0.972181 0.971771 0.971336 0.970871 0.970375 0.969847 0.969261 0.968705 0.96814 0.967545 0.967545 
1.02991 1.02938 1.02928 1.02921 1.02909 1.02884 1.02862 1.02841 1.02817 1.02794 1.02773 1.02755 1.02738 1.02724 1.02713 1.02705 1.02699 1.02695 1.02693 1.02692 1.02692 1.02692 1.02691 1.0269 1.02686 1.02681 1.02672 1.0266 1.02644 1.02623 1.02598 1.02568 1.02533 1.02495 1.02452 1.02406 1.02358 1.02308 1.02256 1.02203 1.0215 1.02097 1.02043 1.01989 1.01936 1.01882 1.01828 1.01774 1.01719 1.01665 1.0161 1.01554 1.01498 1.01441 1.01383 1.01325 1.01266 1.01207 1.01146 1.01086 1.01025 1.00964 1.00902 1.00841 1.00779 1.00718 1.00658 1.00598 1.00538 1.0048 1.00423 1.00367 1.00312 1.00258 1.00205 1.00154 1.00104 1.00054 1.00005 0.99956 0.999069 0.998571 0.998062 0.997539 0.996998 0.996433 0.995843 0.995221 0.994563 0.993861 0.993106 0.992286 0.991386 0.990396 0.989305 0.988112 0.986829 0.985478 0.984095 0.982722 0.981404 0.980181 0.979082 0.978122 0.977305 0.97662 0.976051 0.975575 0.97517 0.974816 0.974492 0.974184 0.97388 0.973573 0.973255 0.972923 0.972572 0.972203 0.971812 0.971398 0.970959 0.970488 0.970007 0.969503 0.968973 0.968479 0.967998 0.967998 
1.02996 1.02964 1.02957 1.02944 1.02924 1.02901 1.02878 1.0285 1.02822 1.02794 1.02768 1.02743 1.0272 1.027 1.02683 1.0267 1.02659 1.02651 1.02645 1.02642 1.02639 1.02638 1.02637 1.02636 1.02633 1.02628 1.02621 1.0261 1.02596 1.02577 1.02554 1.02526 1.02493 1.02456 1.02415 1.02371 1.02324 1.02275 1.02225 1.02173 1.02121 1.02068 1.02015 1.01961 1.01907 1.01853 1.01798 1.01743 1.01688 1.01632 1.01576 1.01518 1.0146 1.01402 1.01342 1.01282 1.01221 1.01159 1.01097 1.01034 1.00971 1.00908 1.00845 1.00782 1.0072 1.00657 1.00596 1.00536 1.00476 1.00418 1.00361 1.00306 1.00252 1.00199 1.00148 1.00099 1.0005 1.00003 0.999558 0.999092 0.998625 0.99815 0.997665 0.997164 0.996642 0.996096 0.995521 0.994915 0.994271 0.993583 0.992843 0.992039 0.991159 0.990188 0.989117 0.987944 0.986678 0.98534 0.983964 0.982594 0.981275 0.980047 0.978942 0.977978 0.977157 0.976473 0.975907 0.975438 0.975043 0.974701 0.974391 0.974099 0.973812 0.973521 0.973221 0.972907 0.972575 0.972225 0.971854 0.971462 0.97105 0.970615 0.970162 0.969705 0.96923 0.968769 0.968339 0.968339 
1.03012 1.02988 1.02978 1.02963 1.02943 1.0292 1.02893 1.02863 1.02832 1.028 1.02768 1.02738 1.02709 1.02683 1.0266 1.0264 1.02623 1.0261 1.026 1.02593 1.02588 1.02585 1.02582 1.0258 1.02577 1.02573 1.02566 1.02557 1.02544 1.02527 1.02505 1.02479 1.02448 1.02412 1.02373 1.02331 1.02285 1.02237 1.02188 1.02137 1.02085 1.02033 1.01979 1.01926 1.01872 1.01817 1.01762 1.01706 1.0165 1.01593 1.01535 1.01476 1.01417 1.01356 1.01295 1.01233 1.0117 1.01107 1.01043 1.00979 1.00914 1.0085 1.00786 1.00722 1.00659 1.00597 1.00535 1.00475 1.00416 1.00358 1.00302 1.00247 1.00194 1.00143 1.00093 1.00045 0.999984 0.999527 0.999077 0.99863 0.998182 0.997728 0.997262 0.99678 0.996276 0.995747 0.995189 0.994598 0.993969 0.993297 0.992574 0.991788 0.990927 0.989977 0.988927 0.987773 0.986522 0.985195 0.983826 0.982457 0.981135 0.979902 0.978791 0.977821 0.976997 0.976312 0.975749 0.975287 0.974902 0.974572 0.974277 0.974002 0.973732 0.973461 0.97318 0.972885 0.972573 0.972243 0.971894 0.971525 0.971137 0.970733 0.970311 0.969882 0.969451 0.969021 0.968609 0.968609 
1.03026 1.03006 1.02996 1.02981 1.02962 1.02937 1.02909 1.02879 1.02846 1.02811 1.02775 1.0274 1.02706 1.02673 1.02644 1.02617 1.02594 1.02575 1.0256 1.02548 1.0254 1.02533 1.02529 1.02525 1.02521 1.02517 1.02511 1.02502 1.02489 1.02473 1.02453 1.02428 1.02398 1.02365 1.02327 1.02285 1.02241 1.02194 1.02146 1.02095 1.02044 1.01991 1.01938 1.01884 1.0183 1.01775 1.01719 1.01663 1.01606 1.01547 1.01488 1.01429 1.01368 1.01306 1.01243 1.0118 1.01116 1.01051 1.00987 1.00922 1.00857 1.00792 1.00727 1.00663 1.006 1.00538 1.00477 1.00417 1.00358 1.00301 1.00246 1.00192 1.0014 1.0009 1.00042 0.999948 0.999493 0.999049 0.998613 0.998181 0.997748 0.997309 0.996859 0.996392 0.995904 0.995391 0.994848 0.994272 0.993659 0.993004 0.992299 0.991533 0.990692 0.989764 0.988734 0.987599 0.986364 0.985048 0.983684 0.982315 0.980988 0.979749 0.97863 0.977654 0.976826 0.97614 0.97558 0.975124 0.974749 0.974431 0.974151 0.973892 0.973642 0.973389 0.973128 0.972854 0.972564 0.972255 0.971928 0.971582 0.971218 0.970839 0.970447 0.970044 0.96964 0.969236 0.968841 0.968841 
1.03034 1.03021 1.03011 1.02996 1.02977 1.02954 1.02926 1.02896 1.02861 1.02825 1.02787 1.02748 1.02709 1.02671 1.02635 1.02603 1.02573 1.02548 1.02527 1.02511 1.02497 1.02487 1.0248 1.02474 1.02469 1.02463 1.02456 1.02447 1.02435 1.0242 1.024 1.02376 1.02348 1.02315 1.02278 1.02238 1.02194 1.02148 1.02099 1.02049 1.01998 1.01946 1.01893 1.01839 1.01784 1.01728 1.01672 1.01615 1.01557 1.01498 1.01438 1.01377 1.01315 1.01252 1.01189 1.01125 1.0106 1.00995 1.0093 1.00864 1.00799 1.00734 1.0067 1.00607 1.00544 1.00483 1.00422 1.00363 1.00305 1.00249 1.00195 1.00142 1.00091 1.00042 0.99994 0.999479 0.999032 0.998597 0.998169 0.997747 0.997324 0.996895 0.996457 0.996003 0.995528 0.995028 0.9945 0.993939 0.993343 0.992705 0.992019 0.991274 0.990455 0.989549 0.988541 0.987424 0.986204 0.984898 0.983539 0.982169 0.980838 0.979592 0.978465 0.977482 0.976649 0.975961 0.975403 0.974952 0.974585 0.974279 0.974014 0.973772 0.973539 0.973306 0.973066 0.972813 0.972544 0.972258 0.971953 0.97163 0.97129 0.970934 0.970566 0.970188 0.969805 0.969422 0.969044 0.969044 
1.03039 1.03032 1.03022 1.03008 1.0299 1.02968 1.02943 1.02913 1.02879 1.02842 1.02802 1.02761 1.02718 1.02676 1.02635 1.02596 1.02561 1.0253 1.02503 1.02481 1.02463 1.02448 1.02437 1.02428 1.02421 1.02413 1.02405 1.02396 1.02384 1.02368 1.02349 1.02325 1.02298 1.02265 1.02229 1.02189 1.02146 1.021 1.02052 1.02002 1.0195 1.01898 1.01844 1.0179 1.01735 1.01679 1.01622 1.01565 1.01506 1.01446 1.01386 1.01324 1.01261 1.01198 1.01134 1.01069 1.01004 1.00939 1.00874 1.00809 1.00744 1.0068 1.00617 1.00554 1.00492 1.00432 1.00372 1.00314 1.00257 1.00202 1.00149 1.00097 1.00046 0.999974 0.999503 0.999046 0.998603 0.998171 0.997748 0.99733 0.996912 0.99649 0.996059 0.995614 0.995149 0.994661 0.994146 0.9936 0.99302 0.9924 0.991734 0.991011 0.990215 0.989332 0.988346 0.987249 0.986044 0.984748 0.983393 0.982023 0.980687 0.979433 0.978298 0.977306 0.976468 0.975777 0.97522 0.974773 0.974414 0.974119 0.973867 0.97364 0.973425 0.973212 0.972992 0.97276 0.972514 0.97225 0.971968 0.971667 0.97135 0.971017 0.97067 0.970314 0.96995 0.969585 0.969222 0.969222 
1.03041 1.03039 1.03029 1.03017 1.03001 1.02981 1.02957 1.02929 1.02897 1.0286 1.0282 1.02777 1.02732 1.02686 1.02641 1.02598 1.02557 1.0252 1.02488 1.0246 1.02437 1.02418 1.02403 1.0239 1.0238 1.0237 1.0236 1.0235 1.02337 1.02321 1.02301 1.02278 1.0225 1.02218 1.02182 1.02142 1.02099 1.02053 1.02004 1.01954 1.01903 1.0185 1.01796 1.01741 1.01686 1.0163 1.01573 1.01514 1.01455 1.01395 1.01334 1.01272 1.01209 1.01145 1.01081 1.01016 1.00951 1.00886 1.00822 1.00757 1.00694 1.0063 1.00568 1.00506 1.00446 1.00386 1.00328 1.00271 1.00215 1.0016 1.00107 1.00056 1.00006 0.999573 0.999103 0.998647 0.998204 0.997772 0.997349 0.99693 0.996514 0.996094 0.995667 0.995227 0.99477 0.994291 0.993787 0.993255 0.99269 0.992089 0.991444 0.990743 0.989971 0.989111 0.988148 0.987071 0.985882 0.984596 0.983246 0.981876 0.980535 0.979273 0.97813 0.977131 0.976286 0.975592 0.975034 0.97459 0.974237 0.973951 0.973711 0.973499 0.973301 0.973106 0.972906 0.972696 0.972471 0.972229 0.97197 0.971692 0.971397 0.971085 0.97076 0.970423 0.970078 0.969728 0.969378 0.969378 
1.03041 1.03042 1.03034 1.03023 1.03009 1.02991 1.0297 1.02944 1.02913 1.02878 1.02839 1.02796 1.0275 1.02702 1.02654 1.02606 1.02561 1.02519 1.02482 1.02449 1.0242 1.02396 1.02377 1.02361 1.02347 1.02334 1.02323 1.0231 1.02296 1.02279 1.02259 1.02236 1.02208 1.02175 1.02139 1.02099 1.02055 1.02009 1.0196 1.01909 1.01857 1.01804 1.0175 1.01695 1.01639 1.01582 1.01525 1.01466 1.01407 1.01346 1.01284 1.01222 1.01159 1.01095 1.01031 1.00967 1.00902 1.00838 1.00774 1.00711 1.00648 1.00586 1.00524 1.00464 1.00404 1.00346 1.00288 1.00232 1.00177 1.00123 1.00071 1.00019 0.999695 0.99921 0.998738 0.99828 0.997833 0.997397 0.996969 0.996547 0.996128 0.995707 0.99528 0.994843 0.99439 0.993918 0.993424 0.992904 0.992355 0.991772 0.991147 0.990469 0.989721 0.988886 0.987945 0.986889 0.985716 0.984442 0.983097 0.981727 0.980383 0.979114 0.977963 0.976956 0.976105 0.975407 0.974848 0.974406 0.974058 0.973779 0.97355 0.973351 0.973168 0.97299 0.972809 0.972619 0.972415 0.972196 0.971958 0.971703 0.971429 0.971139 0.970833 0.970515 0.970187 0.969852 0.969515 0.969515 
1.03039 1.03043 1.03036 1.03026 1.03014 1.02999 1.0298 1.02956 1.02928 1.02895 1.02857 1.02815 1.02769 1.02721 1.02671 1.02621 1.02572 1.02526 1.02484 1.02446 1.02412 1.02384 1.0236 1.02339 1.02322 1.02307 1.02293 1.02278 1.02262 1.02245 1.02224 1.022 1.02171 1.02138 1.02102 1.02061 1.02017 1.0197 1.0192 1.01869 1.01817 1.01763 1.01708 1.01653 1.01597 1.01539 1.01481 1.01422 1.01362 1.01301 1.01239 1.01177 1.01114 1.0105 1.00986 1.00922 1.00858 1.00795 1.00732 1.0067 1.00608 1.00547 1.00486 1.00427 1.00369 1.00311 1.00254 1.00199 1.00144 1.0009 1.00038 0.999868 0.999367 0.998879 0.998403 0.997939 0.997486 0.997043 0.996608 0.99618 0.995755 0.995329 0.9949 0.994462 0.994012 0.993545 0.993059 0.99255 0.992015 0.991449 0.990844 0.990188 0.989465 0.988654 0.987737 0.986702 0.985546 0.984284 0.982946 0.981577 0.98023 0.978956 0.977797 0.976783 0.975926 0.975224 0.974663 0.974222 0.973877 0.973604 0.973383 0.973195 0.973026 0.972864 0.9727 0.972529 0.972346 0.972147 0.971931 0.971697 0.971445 0.971175 0.970889 0.970589 0.970277 0.969957 0.969632 0.969632 
1.03035 1.03042 1.03036 1.03027 1.03017 1.03004 1.02987 1.02966 1.02941 1.0291 1.02875 1.02834 1.0279 1.02742 1.02691 1.0264 1.02589 1.0254 1.02494 1.02451 1.02413 1.0238 1.02351 1.02327 1.02306 1.02287 1.0227 1.02254 1.02236 1.02217 1.02196 1.0217 1.02141 1.02108 1.02071 1.02029 1.01985 1.01937 1.01887 1.01835 1.01782 1.01727 1.01672 1.01616 1.01559 1.01502 1.01443 1.01384 1.01323 1.01262 1.012 1.01137 1.01074 1.01011 1.00947 1.00884 1.00821 1.00758 1.00696 1.00635 1.00574 1.00514 1.00454 1.00396 1.00338 1.00281 1.00225 1.00169 1.00115 1.00061 1.00009 0.999573 0.999068 0.998574 0.998091 0.997619 0.997158 0.996706 0.996263 0.995826 0.995393 0.994961 0.994527 0.994086 0.993636 0.993172 0.992692 0.992192 0.99167 0.99112 0.990535 0.989901 0.989201 0.988414 0.987521 0.986507 0.985369 0.984119 0.982789 0.981423 0.980075 0.978797 0.977633 0.976613 0.97575 0.975044 0.97448 0.974039 0.973696 0.973427 0.973213 0.973034 0.972876 0.972727 0.972579 0.972425 0.97226 0.972082 0.971886 0.971673 0.971441 0.971191 0.970924 0.970642 0.970346 0.970041 0.969729 0.969729 
1.0303 1.03039 1.03033 1.03026 1.03017 1.03006 1.02992 1.02973 1.02951 1.02923 1.0289 1.02853 1.0281 1.02764 1.02714 1.02662 1.0261 1.02559 1.02509 1.02463 1.02421 1.02384 1.02351 1.02322 1.02297 1.02275 1.02256 1.02237 1.02218 1.02197 1.02174 1.02148 1.02119 1.02085 1.02047 1.02005 1.01959 1.01911 1.0186 1.01807 1.01754 1.01699 1.01643 1.01586 1.01529 1.01471 1.01412 1.01352 1.01291 1.01229 1.01167 1.01104 1.01041 1.00978 1.00915 1.00852 1.0079 1.00728 1.00666 1.00605 1.00545 1.00486 1.00427 1.00369 1.00312 1.00255 1.00199 1.00144 1.00089 1.00035 0.999823 0.999302 0.998791 0.99829 0.997799 0.997318 0.996846 0.996384 0.995931 0.995484 0.995042 0.994602 0.994161 0.993716 0.993264 0.992801 0.992325 0.991833 0.991322 0.990787 0.990219 0.989606 0.988929 0.988166 0.987296 0.986302 0.985182 0.983946 0.982625 0.981263 0.979916 0.978635 0.977467 0.976443 0.975576 0.974865 0.974299 0.973857 0.973514 0.973249 0.973039 0.972866 0.972717 0.972579 0.972444 0.972306 0.972158 0.971997 0.971821 0.971627 0.971415 0.971185 0.970936 0.970671 0.970391 0.9701 0.9698 0.9698 
1.03024 1.03034 1.03029 1.03023 1.03016 1.03006 1.02994 1.02978 1.02958 1.02933 1.02903 1.02869 1.02829 1.02785 1.02737 1.02686 1.02634 1.02582 1.0253 1.02481 1.02436 1.02394 1.02357 1.02324 1.02295 1.0227 1.02248 1.02226 1.02205 1.02184 1.0216 1.02133 1.02102 1.02068 1.02029 1.01986 1.0194 1.01891 1.0184 1.01787 1.01732 1.01676 1.0162 1.01563 1.01505 1.01446 1.01387 1.01326 1.01265 1.01203 1.01141 1.01078 1.01015 1.00952 1.00889 1.00826 1.00764 1.00703 1.00642 1.00582 1.00522 1.00463 1.00404 1.00347 1.00289 1.00232 1.00176 1.00121 1.00066 1.00011 0.999578 0.999051 0.998532 0.998022 0.997521 0.99703 0.996548 0.996075 0.99561 0.995153 0.9947 0.994251 0.993803 0.993352 0.992896 0.992432 0.991958 0.991472 0.990971 0.990449 0.989898 0.989304 0.988648 0.987907 0.987059 0.986086 0.984983 0.983762 0.98245 0.981095 0.97975 0.978469 0.977299 0.976271 0.975401 0.974688 0.974119 0.973675 0.973332 0.973067 0.972859 0.972691 0.972548 0.972419 0.972294 0.972168 0.972035 0.97189 0.971731 0.971555 0.971362 0.971149 0.970919 0.97067 0.970406 0.970129 0.969842 0.969842 
1.03017 1.03028 1.03024 1.03019 1.03012 1.03004 1.02993 1.02979 1.02962 1.0294 1.02914 1.02882 1.02846 1.02805 1.0276 1.02711 1.0266 1.02607 1.02555 1.02504 1.02455 1.0241 1.02368 1.02332 1.02299 1.02271 1.02245 1.02222 1.02199 1.02176 1.02151 1.02123 1.02092 1.02057 1.02017 1.01974 1.01928 1.01878 1.01826 1.01772 1.01717 1.01661 1.01604 1.01546 1.01487 1.01428 1.01368 1.01307 1.01245 1.01183 1.01121 1.01058 1.00994 1.00931 1.00869 1.00807 1.00745 1.00683 1.00623 1.00563 1.00503 1.00444 1.00386 1.00328 1.0027 1.00213 1.00156 1.001 1.00044 0.999893 0.999349 0.998813 0.998285 0.997766 0.997255 0.996753 0.99626 0.995776 0.995301 0.994832 0.994369 0.993909 0.993452 0.992994 0.992533 0.992067 0.991594 0.991112 0.990618 0.990107 0.989571 0.988994 0.988358 0.987637 0.98681 0.985857 0.984771 0.983563 0.982263 0.980914 0.979573 0.978294 0.977124 0.976095 0.975223 0.974507 0.973936 0.97349 0.973145 0.97288 0.972672 0.972506 0.972366 0.972242 0.972125 0.972008 0.971887 0.971755 0.971611 0.971452 0.971275 0.97108 0.970866 0.970634 0.970385 0.970121 0.969847 0.969847 
1.03009 1.03021 1.03017 1.03013 1.03007 1.03 1.02991 1.02979 1.02963 1.02944 1.02921 1.02894 1.02861 1.02824 1.02782 1.02736 1.02686 1.02635 1.02582 1.02529 1.02478 1.0243 1.02385 1.02345 1.02308 1.02277 1.02248 1.02222 1.02197 1.02172 1.02146 1.02118 1.02086 1.0205 1.02011 1.01967 1.0192 1.0187 1.01818 1.01763 1.01708 1.01651 1.01593 1.01535 1.01476 1.01416 1.01355 1.01294 1.01232 1.01169 1.01106 1.01043 1.0098 1.00917 1.00854 1.00792 1.0073 1.00669 1.00608 1.00548 1.00488 1.00429 1.0037 1.00311 1.00253 1.00195 1.00138 1.00081 1.00024 0.999685 0.999132 0.998586 0.998049 0.997519 0.996998 0.996485 0.995982 0.995487 0.995 0.994519 0.994045 0.993576 0.993109 0.992643 0.992176 0.991706 0.991232 0.990753 0.990265 0.989763 0.989239 0.988677 0.988058 0.987356 0.986547 0.985611 0.984541 0.983347 0.982058 0.980718 0.979383 0.978107 0.976939 0.97591 0.975037 0.97432 0.973746 0.973297 0.97295 0.972682 0.972473 0.972306 0.972166 0.972045 0.971932 0.971821 0.971708 0.971587 0.971455 0.97131 0.971148 0.970968 0.970769 0.970552 0.970318 0.970068 0.969806 0.969806 
1.03 1.03013 1.0301 1.03005 1.03 1.02994 1.02986 1.02976 1.02962 1.02946 1.02926 1.02902 1.02873 1.0284 1.02802 1.02759 1.02712 1.02662 1.0261 1.02556 1.02504 1.02453 1.02405 1.02361 1.02321 1.02286 1.02255 1.02226 1.02199 1.02173 1.02146 1.02116 1.02084 1.02048 1.02008 1.01965 1.01917 1.01867 1.01814 1.0176 1.01703 1.01646 1.01588 1.01529 1.01469 1.01409 1.01348 1.01286 1.01223 1.0116 1.01097 1.01033 1.0097 1.00907 1.00844 1.00781 1.0072 1.00658 1.00597 1.00536 1.00476 1.00416 1.00357 1.00297 1.00238 1.0018 1.00121 1.00063 1.00006 0.999487 0.998924 0.998368 0.99782 0.99728 0.996748 0.996225 0.995711 0.995205 0.994706 0.994215 0.99373 0.993249 0.992773 0.992298 0.991824 0.991349 0.990873 0.990395 0.989911 0.989416 0.988902 0.988352 0.987747 0.987061 0.986268 0.985347 0.984292 0.983111 0.981832 0.980501 0.979173 0.977903 0.976738 0.975711 0.974838 0.97412 0.973544 0.973092 0.97274 0.972468 0.972255 0.972084 0.971942 0.97182 0.971708 0.9716 0.971492 0.971378 0.971256 0.971121 0.970971 0.970805 0.97062 0.970417 0.970197 0.96996 0.96971 0.96971 
1.0299 1.03004 1.03001 1.02997 1.02992 1.02987 1.0298 1.0297 1.02959 1.02945 1.02928 1.02908 1.02883 1.02854 1.0282 1.02781 1.02737 1.02689 1.02638 1.02585 1.02531 1.02478 1.02427 1.0238 1.02337 1.02299 1.02264 1.02233 1.02204 1.02176 1.02148 1.02118 1.02085 1.02049 1.02009 1.01965 1.01918 1.01868 1.01815 1.0176 1.01703 1.01645 1.01587 1.01527 1.01467 1.01406 1.01344 1.01282 1.01219 1.01155 1.01092 1.01028 1.00964 1.00901 1.00838 1.00775 1.00713 1.00651 1.00589 1.00528 1.00467 1.00406 1.00346 1.00285 1.00225 1.00165 1.00106 1.00046 0.999878 0.999297 0.998722 0.998156 0.997597 0.997046 0.996504 0.995971 0.995445 0.994929 0.994419 0.993916 0.99342 0.992929 0.992442 0.991958 0.991476 0.990996 0.990517 0.990037 0.989555 0.989066 0.988559 0.988019 0.987425 0.986751 0.98597 0.985062 0.984019 0.982848 0.98158 0.980258 0.978938 0.977674 0.976514 0.97549 0.974619 0.9739 0.973322 0.972865 0.972509 0.97223 0.972011 0.971834 0.971687 0.97156 0.971445 0.971337 0.97123 0.97112 0.971004 0.970877 0.970737 0.970582 0.970409 0.970219 0.970011 0.969786 0.969548 0.969548 
1.0298 1.02994 1.02991 1.02987 1.02983 1.02978 1.02971 1.02963 1.02954 1.02942 1.02928 1.0291 1.0289 1.02865 1.02835 1.028 1.0276 1.02715 1.02666 1.02613 1.02559 1.02505 1.02452 1.02402 1.02356 1.02314 1.02276 1.02242 1.02211 1.02182 1.02152 1.02122 1.02088 1.02052 1.02012 1.01969 1.01921 1.01871 1.01818 1.01763 1.01706 1.01648 1.01589 1.01529 1.01469 1.01407 1.01345 1.01282 1.01219 1.01155 1.01091 1.01027 1.00962 1.00899 1.00835 1.00772 1.00709 1.00646 1.00584 1.00521 1.0046 1.00398 1.00336 1.00274 1.00213 1.00152 1.00091 1.00031 0.999705 0.999114 0.998527 0.997948 0.997379 0.996817 0.996264 0.995721 0.995184 0.994656 0.994136 0.993621 0.993114 0.992612 0.992114 0.991621 0.991131 0.990645 0.990161 0.989679 0.989198 0.98871 0.988208 0.987675 0.987088 0.986423 0.985651 0.984752 0.983717 0.982556 0.981296 0.979983 0.978671 0.977414 0.97626 0.975241 0.974371 0.973652 0.973071 0.97261 0.972247 0.971961 0.971732 0.971547 0.971392 0.971257 0.971137 0.971024 0.970915 0.970806 0.970692 0.97057 0.970437 0.97029 0.970128 0.969948 0.969752 0.969539 0.969311 0.969311 
1.02968 1.02983 1.0298 1.02977 1.02973 1.02968 1.02962 1.02955 1.02947 1.02937 1.02925 1.02911 1.02894 1.02873 1.02848 1.02817 1.02781 1.02739 1.02692 1.02641 1.02587 1.02532 1.02477 1.02425 1.02375 1.02331 1.0229 1.02253 1.0222 1.02189 1.02158 1.02127 1.02093 1.02057 1.02017 1.01974 1.01927 1.01877 1.01824 1.01769 1.01712 1.01654 1.01595 1.01535 1.01473 1.01411 1.01349 1.01285 1.01222 1.01157 1.01093 1.01028 1.00964 1.00899 1.00835 1.00771 1.00707 1.00644 1.0058 1.00517 1.00454 1.00391 1.00328 1.00265 1.00202 1.00139 1.00077 1.00015 0.999538 0.998933 0.998337 0.997745 0.997163 0.996592 0.996027 0.995471 0.994925 0.994384 0.993853 0.993328 0.992808 0.992296 0.991787 0.991285 0.990786 0.990292 0.989803 0.989318 0.988835 0.988348 0.987848 0.987317 0.986734 0.986073 0.985305 0.984411 0.983382 0.982227 0.980974 0.979669 0.978365 0.977116 0.975969 0.974954 0.974087 0.973367 0.972783 0.972316 0.971945 0.971649 0.971411 0.971214 0.971048 0.970903 0.970774 0.970654 0.97054 0.970427 0.970313 0.970192 0.970064 0.969923 0.969769 0.969598 0.969411 0.969209 0.968991 0.968991 
1.02956 1.02972 1.02969 1.02965 1.02961 1.02956 1.02951 1.02945 1.02938 1.0293 1.0292 1.02909 1.02896 1.02879 1.02857 1.02831 1.02799 1.02761 1.02716 1.02667 1.02614 1.02559 1.02503 1.02448 1.02396 1.02348 1.02305 1.02266 1.0223 1.02197 1.02165 1.02133 1.02099 1.02063 1.02023 1.0198 1.01934 1.01884 1.01832 1.01777 1.0172 1.01662 1.01603 1.01542 1.01481 1.01419 1.01356 1.01292 1.01228 1.01163 1.01098 1.01033 1.00968 1.00903 1.00838 1.00773 1.00708 1.00643 1.00579 1.00515 1.0045 1.00385 1.00321 1.00256 1.00192 1.00128 1.00063 1 0.99938 0.998756 0.998148 0.997546 0.996949 0.996365 0.995791 0.99522 0.994663 0.994112 0.993567 0.993032 0.9925 0.991976 0.991458 0.990945 0.990438 0.989936 0.989441 0.988951 0.988464 0.987975 0.987473 0.986942 0.986358 0.985696 0.984928 0.984034 0.983006 0.981854 0.980606 0.979307 0.978011 0.97677 0.97563 0.974621 0.973756 0.973036 0.972448 0.971975 0.971595 0.971289 0.971038 0.970828 0.970648 0.970491 0.97035 0.97022 0.970097 0.969979 0.969861 0.96974 0.969613 0.969476 0.969327 0.969164 0.968985 0.968792 0.968584 0.968584 
1.02942 1.02959 1.02956 1.02952 1.02948 1.02944 1.02939 1.02934 1.02928 1.02922 1.02914 1.02906 1.02895 1.02882 1.02864 1.02842 1.02814 1.02779 1.02738 1.02691 1.02639 1.02584 1.02528 1.02472 1.02417 1.02367 1.02321 1.02279 1.02241 1.02206 1.02172 1.02139 1.02105 1.02069 1.0203 1.01987 1.01941 1.01892 1.01841 1.01786 1.0173 1.01672 1.01613 1.01552 1.01491 1.01428 1.01365 1.01301 1.01237 1.01172 1.01106 1.0104 1.00975 1.00909 1.00843 1.00778 1.00711 1.00645 1.0058 1.00513 1.00447 1.00382 1.00315 1.00248 1.00182 1.00117 1.00051 0.99985 0.999226 0.998589 0.997955 0.997344 0.99674 0.996135 0.99555 0.99497 0.994395 0.993836 0.993276 0.992728 0.992187 0.99165 0.991122 0.990598 0.990081 0.989572 0.989069 0.988573 0.98808 0.987586 0.98708 0.986543 0.985954 0.985286 0.984512 0.983613 0.982583 0.98143 0.980184 0.978891 0.977601 0.976368 0.975236 0.974232 0.973371 0.972651 0.972059 0.971579 0.97119 0.970871 0.970606 0.970382 0.970188 0.970016 0.969861 0.969718 0.969585 0.969458 0.969334 0.96921 0.969082 0.968947 0.968802 0.968644 0.968473 0.968287 0.968087 0.968087 