# vtk DataFile Version 3.0
LBM simulation at step 80
ASCII
DATASET STRUCTURED_POINTS
DIMENSIONS 256 256 1
ORIGIN 0 0 0
SPACING 1 1 1
POINT_DATA 65536
SCALARS density float
LOOKUP_TABLE default
0.739147 1.08459 1.13126 1.08927 1.08123 1.09015 1.09199 1.0902 1.08958 1.08969 1.08957 1.08931 1.08909 1.08891 1.08873 1.08856 1.08839 1.08824 1.08807 1.08792 1.08776 1.0876 1.08744 1.08728 1.08711 1.08694 1.08676 1.08657 1.08636 1.08615 1.08591 1.08566 1.08538 1.08507 1.08475 1.08443 1.08409 1.0837 1.08313 1.08212 1.08029 1.07715 1.07221 1.06516 1.05609 1.04562 1.03479 1.02476 1.01641 1.01015 1.00587 1.00318 1.00162 1.00078 1.00035 1.00015 1.00006 1.00002 1.00001 1 1 1 1 1 1 1 1 1 1 1 1 1 1 1 1 1 1 1 1 1 1 1 1 1 1 1 1 1 1 1 1 1 1 1 1 1 1 1 1 1 1 1 1 1 1 1 1 1 1 1 1 1 1 1 1 1 1 1 1 1 1 1 1 1 1 1 1 1 1 1 1 1 1 1 1 1 1 1 1 1 1 1 1 1 1 1 1 1 1 1 1 1 1 1 1 1 1 1 1 1 1 1 1 1 1 1 1 1 1 1 1 1 1 1 1 1 1 1 1 1 1 1 1 1 1 1 1 1 1 1 1 1 1 1 1 1 1 0.999999 0.999998 0.999995 0.999986 0.999968 0.999929 0.999853 0.99971 0.999461 0.999053 0.998426 0.997517 0.996276 0.994675 0.992717 0.990442 0.98792 0.985245 0.982515 0.979822 0.977237 0.974806 0.972546 0.97045 0.968497 0.966654 0.964889 0.963175 0.961491 0.959823 0.958161 0.956502 0.954842 0.953177 0.951504 0.949819 0.948118 0.946396 0.944646 0.942863 0.94104 0.93917 0.937243 0.935248 0.933173 0.931 0.928709 0.926271 0.923659 0.920822 0.917642 0.914042 0.910137 0.905456 0.897885 0.888443 0.884031 0.861151 0.701278 
1.12762 1.06106 1.05622 1.09136 1.09488 1.08949 1.08869 1.08985 1.08995 1.08957 1.08932 1.0892 1.08901 1.08884 1.08865 1.08849 1.08831 1.08817 1.08799 1.08785 1.08768 1.08752 1.08735 1.08719 1.08701 1.08684 1.08665 1.08645 1.08624 1.08601 1.08576 1.08549 1.0852 1.08488 1.08454 1.08418 1.08376 1.08323 1.08244 1.08118 1.07913 1.07595 1.07127 1.06483 1.05661 1.04696 1.03666 1.02677 1.01821 1.01155 1.00684 1.00379 1.00197 1.00096 1.00044 1.00019 1.00008 1.00003 1.00001 1 1 1 1 1 1 1 1 1 1 1 1 1 1 1 1 1 1 1 1 1 1 1 1 1 1 1 1 1 1 1 1 1 1 1 1 1 1 1 1 1 1 1 1 1 1 1 1 1 1 1 1 1 1 1 1 1 1 1 1 1 1 1 1 1 1 1 1 1 1 1 1 1 1 1 1 1 1 1 1 1 1 1 1 1 1 1 1 1 1 1 1 1 1 1 1 1 1 1 1 1 1 1 1 1 1 1 1 1 1 1 1 1 1 1 1 1 1 1 1 1 1 1 1 1 1 1 1 1 1 1 1 1 1 1 1 1 1 0.999999 0.999997 0.999993 0.999983 0.99996 0.999914 0.999824 0.99966 0.99938 0.998931 0.998254 0.997292 0.996002 0.994366 0.992393 0.990128 0.987641 0.985018 0.98235 0.979717 0.977185 0.974793 0.972555 0.970468 0.968511 0.966658 0.964881 0.963155 0.96146 0.959783 0.958116 0.956451 0.954785 0.953115 0.951436 0.949745 0.948036 0.946304 0.944545 0.942751 0.940916 0.939032 0.937088 0.935074 0.932976 0.930775 0.928451 0.925974 0.923297 0.920377 0.917183 0.913537 0.908997 0.903746 0.898774 0.890465 0.866862 0.843108 0.843108 
1.13671 1.06512 1.07396 1.09356 1.0906 1.08814 1.08925 1.08989 1.08956 1.08932 1.08921 1.08909 1.08889 1.08873 1.08855 1.0884 1.08822 1.08808 1.0879 1.08776 1.08758 1.08743 1.08725 1.08709 1.0869 1.08672 1.08652 1.08631 1.08609 1.08585 1.08559 1.0853 1.08499 1.08464 1.08426 1.08384 1.08334 1.08268 1.08175 1.08036 1.07826 1.07518 1.07082 1.06494 1.05738 1.04834 1.0384 1.02854 1.01975 1.01272 1.00763 1.00429 1.00225 1.00111 1.00052 1.00023 1.00009 1.00004 1.00001 1 1 1 1 1 1 1 1 1 1 1 1 1 1 1 1 1 1 1 1 1 1 1 1 1 1 1 1 1 1 1 1 1 1 1 1 1 1 1 1 1 1 1 1 1 1 1 1 1 1 1 1 1 1 1 1 1 1 1 1 1 1 1 1 1 1 1 1 1 1 1 1 1 1 1 1 1 1 1 1 1 1 1 1 1 1 1 1 1 1 1 1 1 1 1 1 1 1 1 1 1 1 1 1 1 1 1 1 1 1 1 1 1 1 1 1 1 1 1 1 1 1 1 1 1 1 1 1 1 1 1 1 1 1 1 1 1 1 0.999999 0.999997 0.999992 0.999981 0.999956 0.999904 0.999806 0.999628 0.999328 0.998851 0.99814 0.997141 0.995815 0.99415 0.992162 0.989899 0.987431 0.984842 0.982217 0.979632 0.977143 0.974785 0.972573 0.9705 0.968548 0.966693 0.964909 0.963175 0.961473 0.959789 0.958116 0.956447 0.954777 0.953102 0.951419 0.949723 0.94801 0.946274 0.944509 0.94271 0.94087 0.938979 0.937029 0.935009 0.932904 0.930697 0.928366 0.925888 0.923221 0.920293 0.917064 0.913567 0.909467 0.904011 0.898141 0.893947 0.883958 0.866941 0.866941 
1.05363 1.08937 1.10219 1.08466 1.08461 1.09001 1.09022 1.08909 1.08903 1.08923 1.0891 1.08892 1.08874 1.08862 1.08843 1.0883 1.08811 1.08797 1.08779 1.08765 1.08747 1.08732 1.08713 1.08697 1.08677 1.08659 1.08638 1.08616 1.08593 1.08568 1.0854 1.0851 1.08476 1.0844 1.08398 1.08351 1.08294 1.08221 1.08119 1.07972 1.0776 1.07461 1.07051 1.06505 1.05805 1.04954 1.03997 1.03018 1.02121 1.01385 1.00841 1.00477 1.00254 1.00126 1.00059 1.00026 1.00011 1.00004 1.00002 1.00001 1 1 1 1 1 1 1 1 1 1 1 1 1 1 1 1 1 1 1 1 1 1 1 1 1 1 1 1 1 1 1 1 1 1 1 1 1 1 1 1 1 1 1 1 1 1 1 1 1 1 1 1 1 1 1 1 1 1 1 1 1 1 1 1 1 1 1 1 1 1 1 1 1 1 1 1 1 1 1 1 1 1 1 1 1 1 1 1 1 1 1 1 1 1 1 1 1 1 1 1 1 1 1 1 1 1 1 1 1 1 1 1 1 1 1 1 1 1 1 1 1 1 1 1 1 1 1 1 1 1 1 1 1 1 1 1 1 0.999999 0.999997 0.999991 0.999979 0.999952 0.999897 0.999792 0.999605 0.99929 0.998794 0.998059 0.997035 0.995687 0.994006 0.992013 0.989756 0.987308 0.984747 0.982157 0.979606 0.977148 0.974816 0.97262 0.970556 0.968607 0.966751 0.964964 0.963226 0.961519 0.959832 0.958155 0.956483 0.954811 0.953134 0.951449 0.949752 0.948036 0.946299 0.944534 0.942734 0.940894 0.939005 0.937058 0.935042 0.932945 0.930751 0.928437 0.925977 0.923354 0.920531 0.917377 0.913815 0.910133 0.906104 0.899827 0.892339 0.888815 0.884497 0.884497 
1.09302 1.09276 1.08522 1.08533 1.09039 1.0895 1.08838 1.08884 1.08917 1.08902 1.08881 1.08874 1.0886 1.08848 1.08829 1.08817 1.08798 1.08786 1.08767 1.08754 1.08734 1.0872 1.08701 1.08684 1.08664 1.08645 1.08623 1.08601 1.08576 1.0855 1.08521 1.0849 1.08455 1.08416 1.08372 1.08321 1.08258 1.08177 1.08066 1.07911 1.07696 1.07406 1.07021 1.06518 1.05873 1.05074 1.0415 1.03178 1.02263 1.01495 1.00917 1.00525 1.00281 1.00141 1.00066 1.00029 1.00012 1.00005 1.00002 1.00001 1 1 1 1 1 1 1 1 1 1 1 1 1 1 1 1 1 1 1 1 1 1 1 1 1 1 1 1 1 1 1 1 1 1 1 1 1 1 1 1 1 1 1 1 1 1 1 1 1 1 1 1 1 1 1 1 1 1 1 1 1 1 1 1 1 1 1 1 1 1 1 1 1 1 1 1 1 1 1 1 1 1 1 1 1 1 1 1 1 1 1 1 1 1 1 1 1 1 1 1 1 1 1 1 1 1 1 1 1 1 1 1 1 1 1 1 1 1 1 1 1 1 1 1 1 1 1 1 1 1 1 1 1 1 1 1 1 0.999999 0.999997 0.999991 0.999978 0.99995 0.999893 0.999785 0.999591 0.999267 0.998759 0.998011 0.996972 0.995611 0.993922 0.991929 0.989683 0.987254 0.984721 0.982161 0.979641 0.977209 0.974896 0.972712 0.970653 0.968705 0.966845 0.965054 0.963311 0.9616 0.959909 0.95823 0.956557 0.954884 0.953206 0.951521 0.949824 0.94811 0.946374 0.944611 0.942815 0.94098 0.939098 0.937161 0.935159 0.93308 0.93091 0.928634 0.926225 0.923651 0.920911 0.917989 0.914695 0.910931 0.907297 0.903554 0.897882 0.8928 0.889621 0.889621 
1.09488 1.08801 1.08607 1.09068 1.08922 1.08758 1.08862 1.0891 1.0888 1.08866 1.08864 1.08859 1.08842 1.08832 1.08814 1.08804 1.08784 1.08773 1.08754 1.08741 1.08722 1.08708 1.08687 1.08671 1.0865 1.08631 1.08608 1.08586 1.0856 1.08533 1.08503 1.0847 1.08433 1.08392 1.08345 1.08289 1.0822 1.08131 1.08012 1.07851 1.07637 1.07357 1.06998 1.06536 1.05942 1.05192 1.043 1.03335 1.02402 1.01602 1.00991 1.00571 1.00307 1.00154 1.00073 1.00032 1.00013 1.00005 1.00002 1.00001 1 1 1 1 1 1 1 1 1 1 1 1 1 1 1 1 1 1 1 1 1 1 1 1 1 1 1 1 1 1 1 1 1 1 1 1 1 1 1 1 1 1 1 1 1 1 1 1 1 1 1 1 1 1 1 1 1 1 1 1 1 1 1 1 1 1 1 1 1 1 1 1 1 1 1 1 1 1 1 1 1 1 1 1 1 1 1 1 1 1 1 1 1 1 1 1 1 1 1 1 1 1 1 1 1 1 1 1 1 1 1 1 1 1 1 1 1 1 1 1 1 1 1 1 1 1 1 1 1 1 1 1 1 1 1 1 1 0.999999 0.999996 0.999991 0.999978 0.99995 0.999892 0.999782 0.999586 0.999259 0.998746 0.997992 0.996948 0.995583 0.993895 0.991909 0.989676 0.987266 0.984758 0.982225 0.97973 0.97732 0.975022 0.972848 0.970792 0.968842 0.966979 0.965182 0.963434 0.961719 0.960025 0.958343 0.956668 0.954994 0.953317 0.951633 0.949937 0.948225 0.946493 0.944734 0.942945 0.941118 0.939248 0.937325 0.935342 0.933288 0.931149 0.928913 0.92657 0.924088 0.921422 0.918596 0.915662 0.912344 0.908483 0.904923 0.901417 0.897318 0.893886 0.893886 
1.08612 1.08851 1.08998 1.08881 1.08752 1.08864 1.08891 1.08847 1.08843 1.08857 1.08848 1.08837 1.08823 1.08816 1.08798 1.08789 1.0877 1.0876 1.0874 1.08728 1.08708 1.08694 1.08674 1.08657 1.08636 1.08616 1.08593 1.0857 1.08543 1.08515 1.08483 1.08449 1.0841 1.08366 1.08316 1.08256 1.08181 1.08085 1.0796 1.07795 1.07582 1.07315 1.06981 1.0656 1.06013 1.0531 1.04448 1.03489 1.02538 1.01707 1.01063 1.00615 1.00332 1.00167 1.00079 1.00035 1.00015 1.00006 1.00002 1.00001 1 1 1 1 1 1 1 1 1 1 1 1 1 1 1 1 1 1 1 1 1 1 1 1 1 1 1 1 1 1 1 1 1 1 1 1 1 1 1 1 1 1 1 1 1 1 1 1 1 1 1 1 1 1 1 1 1 1 1 1 1 1 1 1 1 1 1 1 1 1 1 1 1 1 1 1 1 1 1 1 1 1 1 1 1 1 1 1 1 1 1 1 1 1 1 1 1 1 1 1 1 1 1 1 1 1 1 1 1 1 1 1 1 1 1 1 1 1 1 1 1 1 1 1 1 1 1 1 1 1 1 1 1 1 1 1 1 0.999999 0.999997 0.999991 0.999978 0.99995 0.999893 0.999784 0.99959 0.999264 0.998754 0.998003 0.996963 0.995604 0.993925 0.99195 0.989733 0.987343 0.984856 0.982346 0.979872 0.977479 0.975193 0.973025 0.97097 0.969018 0.96715 0.965348 0.963595 0.961875 0.960178 0.958494 0.956818 0.955143 0.953467 0.951783 0.95009 0.948381 0.946653 0.944901 0.943119 0.941303 0.939445 0.93754 0.935578 0.933552 0.931451 0.929261 0.926971 0.924577 0.922053 0.919335 0.916479 0.913584 0.910365 0.906858 0.903565 0.900182 0.896978 0.896978 
1.08847 1.08867 1.08859 1.08792 1.08852 1.08871 1.08821 1.08827 1.08842 1.08836 1.08822 1.08818 1.08806 1.08799 1.08782 1.08774 1.08755 1.08745 1.08726 1.08714 1.08694 1.0868 1.08659 1.08643 1.08621 1.08601 1.08577 1.08553 1.08525 1.08496 1.08463 1.08427 1.08386 1.0834 1.08286 1.08221 1.08141 1.0804 1.07908 1.07741 1.07532 1.07278 1.06971 1.06588 1.06088 1.05428 1.04595 1.0364 1.02671 1.01809 1.01133 1.00658 1.00356 1.0018 1.00085 1.00038 1.00016 1.00006 1.00002 1.00001 1 1 1 1 1 1 1 1 1 1 1 1 1 1 1 1 1 1 1 1 1 1 1 1 1 1 1 1 1 1 1 1 1 1 1 1 1 1 1 1 1 1 1 1 1 1 1 1 1 1 1 1 1 1 1 1 1 1 1 1 1 1 1 1 1 1 1 1 1 1 1 1 1 1 1 1 1 1 1 1 1 1 1 1 1 1 1 1 1 1 1 1 1 1 1 1 1 1 1 1 1 1 1 1 1 1 1 1 1 1 1 1 1 1 1 1 1 1 1 1 1 1 1 1 1 1 1 1 1 1 1 1 1 1 1 1 1 0.999999 0.999997 0.999991 0.999979 0.999952 0.999897 0.999791 0.999601 0.999282 0.998781 0.998041 0.997014 0.995671 0.994009 0.992052 0.989854 0.987484 0.985017 0.982525 0.980067 0.977687 0.975409 0.973244 0.971189 0.969233 0.96736 0.965552 0.963793 0.962069 0.960368 0.958682 0.957004 0.95533 0.953653 0.951972 0.950281 0.948576 0.946853 0.945107 0.943335 0.94153 0.939686 0.937799 0.935861 0.933863 0.931799 0.92966 0.92743 0.925098 0.922676 0.920139 0.917414 0.914585 0.911734 0.908679 0.905545 0.9025 0.89957 0.89957 
1.08901 1.08824 1.08804 1.08832 1.08847 1.0881 1.08813 1.08829 1.08817 1.0881 1.08805 1.08802 1.08788 1.08781 1.08765 1.08758 1.08739 1.0873 1.08711 1.087 1.08679 1.08665 1.08644 1.08627 1.08605 1.08585 1.08559 1.08535 1.08506 1.08476 1.08441 1.08404 1.08361 1.08312 1.08254 1.08186 1.08101 1.07994 1.07858 1.07689 1.07486 1.07247 1.06967 1.06622 1.06166 1.05547 1.0474 1.03788 1.02801 1.01909 1.012 1.00698 1.00378 1.00192 1.00091 1.0004 1.00017 1.00007 1.00002 1.00001 1 1 1 1 1 1 1 1 1 1 1 1 1 1 1 1 1 1 1 1 1 1 1 1 1 1 1 1 1 1 1 1 1 1 1 1 1 1 1 1 1 1 1 1 1 1 1 1 1 1 1 1 1 1 1 1 1 1 1 1 1 1 1 1 1 1 1 1 1 1 1 1 1 1 1 1 1 1 1 1 1 1 1 1 1 1 1 1 1 1 1 1 1 1 1 1 1 1 1 1 1 1 1 1 1 1 1 1 1 1 1 1 1 1 1 1 1 1 1 1 1 1 1 1 1 1 1 1 1 1 1 1 1 1 1 1 1 0.999999 0.999997 0.999992 0.999981 0.999955 0.999902 0.999801 0.999619 0.999311 0.998825 0.998104 0.9971 0.995782 0.994144 0.992213 0.990038 0.987689 0.985241 0.982764 0.980318 0.977945 0.975671 0.973506 0.971448 0.969487 0.967608 0.965793 0.964029 0.9623 0.960595 0.958907 0.957228 0.955553 0.953878 0.952198 0.950509 0.948809 0.947091 0.945353 0.94359 0.941797 0.939968 0.938099 0.936184 0.934216 0.932188 0.930093 0.927926 0.92567 0.923316 0.920887 0.91836 0.915687 0.912952 0.91017 0.907289 0.904429 0.901691 0.901691 
1.08804 1.08812 1.08818 1.08818 1.08802 1.08802 1.08812 1.08803 1.08794 1.08796 1.08788 1.08782 1.08769 1.08764 1.08749 1.08741 1.08723 1.08715 1.08695 1.08684 1.08663 1.0865 1.08628 1.08611 1.08588 1.08567 1.08542 1.08516 1.08486 1.08455 1.08419 1.0838 1.08334 1.08283 1.08222 1.0815 1.0806 1.07949 1.0781 1.07641 1.07444 1.07221 1.06969 1.06661 1.06248 1.05667 1.04884 1.03934 1.02928 1.02005 1.01264 1.00737 1.004 1.00202 1.00096 1.00043 1.00018 1.00007 1.00003 1.00001 1 1 1 1 1 1 1 1 1 1 1 1 1 1 1 1 1 1 1 1 1 1 1 1 1 1 1 1 1 1 1 1 1 1 1 1 1 1 1 1 1 1 1 1 1 1 1 1 1 1 1 1 1 1 1 1 1 1 1 1 1 1 1 1 1 1 1 1 1 1 1 1 1 1 1 1 1 1 1 1 1 1 1 1 1 1 1 1 1 1 1 1 1 1 1 1 1 1 1 1 1 1 1 1 1 1 1 1 1 1 1 1 1 1 1 1 1 1 1 1 1 1 1 1 1 1 1 1 1 1 1 1 1 1 1 1 1 0.999999 0.999997 0.999993 0.999982 0.999959 0.99991 0.999815 0.999642 0.99935 0.998884 0.99819 0.997217 0.995933 0.994329 0.99243 0.990283 0.987957 0.985527 0.983063 0.980626 0.978257 0.975983 0.973815 0.971751 0.969783 0.967895 0.966074 0.964303 0.962569 0.96086 0.95917 0.957489 0.955814 0.954139 0.952461 0.950776 0.949079 0.947368 0.945637 0.943883 0.942102 0.940289 0.938439 0.936546 0.934607 0.932614 0.93056 0.928443 0.926258 0.923991 0.921636 0.919219 0.916717 0.914121 0.911485 0.90881 0.906119 0.903514 0.903514 
1.08801 1.08799 1.08797 1.08792 1.08789 1.08794 1.08788 1.08782 1.08781 1.08779 1.08768 1.08764 1.08752 1.08747 1.08731 1.08725 1.08707 1.08698 1.08679 1.08668 1.08647 1.08633 1.08612 1.08594 1.08571 1.08549 1.08523 1.08496 1.08466 1.08433 1.08396 1.08355 1.08307 1.08253 1.08189 1.08113 1.08019 1.07903 1.07762 1.07595 1.07406 1.07202 1.06977 1.06706 1.06334 1.05789 1.05027 1.04077 1.03051 1.02097 1.01325 1.00774 1.0042 1.00212 1.00101 1.00045 1.00019 1.00007 1.00003 1.00001 1 1 1 1 1 1 1 1 1 1 1 1 1 1 1 1 1 1 1 1 1 1 1 1 1 1 1 1 1 1 1 1 1 1 1 1 1 1 1 1 1 1 1 1 1 1 1 1 1 1 1 1 1 1 1 1 1 1 1 1 1 1 1 1 1 1 1 1 1 1 1 1 1 1 1 1 1 1 1 1 1 1 1 1 1 1 1 1 1 1 1 1 1 1 1 1 1 1 1 1 1 1 1 1 1 1 1 1 1 1 1 1 1 1 1 1 1 1 1 1 1 1 1 1 1 1 1 1 1 1 1 1 1 1 1 1 1 0.999999 0.999998 0.999994 0.999984 0.999963 0.999918 0.999831 0.999671 0.999396 0.998957 0.998295 0.997362 0.99612 0.99456 0.9927 0.990588 0.988289 0.985877 0.983425 0.980992 0.978623 0.976346 0.974171 0.972099 0.970121 0.968225 0.966395 0.964616 0.962876 0.961164 0.95947 0.957788 0.956113 0.954439 0.952762 0.95108 0.949387 0.947682 0.945959 0.944214 0.942445 0.940647 0.938815 0.936945 0.935032 0.933073 0.931061 0.92899 0.926859 0.924667 0.922402 0.920066 0.917675 0.915216 0.912701 0.910159 0.907606 0.905112 0.905112 
1.08793 1.08778 1.08776 1.08777 1.08776 1.08774 1.08768 1.08768 1.08763 1.08759 1.0875 1.08747 1.08734 1.08729 1.08714 1.08707 1.0869 1.08681 1.08662 1.08651 1.0863 1.08616 1.08594 1.08577 1.08552 1.0853 1.08503 1.08476 1.08444 1.0841 1.08371 1.08328 1.08279 1.08222 1.08155 1.08075 1.07977 1.07858 1.07715 1.07551 1.07373 1.07188 1.06992 1.06758 1.06424 1.05913 1.05169 1.04217 1.03171 1.02186 1.01384 1.00808 1.00438 1.00222 1.00105 1.00046 1.00019 1.00008 1.00003 1.00001 1 1 1 1 1 1 1 1 1 1 1 1 1 1 1 1 1 1 1 1 1 1 1 1 1 1 1 1 1 1 1 1 1 1 1 1 1 1 1 1 1 1 1 1 1 1 1 1 1 1 1 1 1 1 1 1 1 1 1 1 1 1 1 1 1 1 1 1 1 1 1 1 1 1 1 1 1 1 1 1 1 1 1 1 1 1 1 1 1 1 1 1 1 1 1 1 1 1 1 1 1 1 1 1 1 1 1 1 1 1 1 1 1 1 1 1 1 1 1 1 1 1 1 1 1 1 1 1 1 1 1 1 1 1 1 1 1 0.999999 0.999998 0.999995 0.999986 0.999967 0.999927 0.999848 0.999702 0.999449 0.999039 0.998416 0.997529 0.996339 0.994832 0.993021 0.990949 0.988682 0.986291 0.983849 0.98142 0.979048 0.976763 0.974578 0.972495 0.970505 0.968598 0.966758 0.964971 0.963224 0.961507 0.95981 0.958126 0.95645 0.954776 0.953101 0.951422 0.949734 0.948034 0.946318 0.944583 0.942826 0.941042 0.939228 0.937379 0.935492 0.933562 0.931587 0.929562 0.927482 0.925347 0.923157 0.920904 0.918596 0.91624 0.913836 0.911399 0.908953 0.906548 0.906548 
1.08769 1.0876 1.08761 1.0876 1.08758 1.08755 1.08753 1.08751 1.08744 1.08741 1.08733 1.08729 1.08716 1.08711 1.08696 1.0869 1.08672 1.08664 1.08644 1.08634 1.08613 1.08599 1.08576 1.08558 1.08533 1.08511 1.08483 1.08455 1.08422 1.08387 1.08346 1.08301 1.0825 1.0819 1.0812 1.08036 1.07934 1.07812 1.0767 1.07511 1.07346 1.07182 1.07016 1.06817 1.0652 1.06039 1.05311 1.04355 1.03287 1.02271 1.01438 1.0084 1.00455 1.0023 1.00109 1.00048 1.0002 1.00008 1.00003 1.00001 1 1 1 1 1 1 1 1 1 1 1 1 1 1 1 1 1 1 1 1 1 1 1 1 1 1 1 1 1 1 1 1 1 1 1 1 1 1 1 1 1 1 1 1 1 1 1 1 1 1 1 1 1 1 1 1 1 1 1 1 1 1 1 1 1 1 1 1 1 1 1 1 1 1 1 1 1 1 1 1 1 1 1 1 1 1 1 1 1 1 1 1 1 1 1 1 1 1 1 1 1 1 1 1 1 1 1 1 1 1 1 1 1 1 1 1 1 1 1 1 1 1 1 1 1 1 1 1 1 1 1 1 1 1 1 1 1 0.999999 0.999998 0.999995 0.999988 0.999972 0.999937 0.999866 0.999735 0.999505 0.999128 0.998549 0.997716 0.996586 0.99514 0.993387 0.991365 0.989135 0.986768 0.984339 0.981911 0.979533 0.977237 0.975039 0.972941 0.970937 0.969016 0.967165 0.965368 0.963614 0.961891 0.960189 0.958503 0.956826 0.955153 0.953479 0.951802 0.950118 0.948424 0.946715 0.94499 0.943244 0.941474 0.939676 0.937847 0.935985 0.934084 0.932141 0.930156 0.928123 0.92604 0.923909 0.921728 0.919496 0.917219 0.914903 0.912555 0.910196 0.907864 0.907864 
1.08752 1.08743 1.08743 1.08741 1.0874 1.08738 1.08735 1.08732 1.08726 1.08723 1.08714 1.0871 1.08698 1.08693 1.08678 1.08672 1.08654 1.08646 1.08626 1.08616 1.08594 1.0858 1.08557 1.08539 1.08513 1.0849 1.08461 1.08432 1.08398 1.08362 1.0832 1.08273 1.08219 1.08157 1.08083 1.07996 1.07891 1.07767 1.07626 1.07475 1.07324 1.07183 1.07047 1.06883 1.06621 1.06167 1.05452 1.04489 1.03397 1.02351 1.01489 1.00869 1.0047 1.00237 1.00112 1.00049 1.00021 1.00008 1.00003 1.00001 1 1 1 1 1 1 1 1 1 1 1 1 1 1 1 1 1 1 1 1 1 1 1 1 1 1 1 1 1 1 1 1 1 1 1 1 1 1 1 1 1 1 1 1 1 1 1 1 1 1 1 1 1 1 1 1 1 1 1 1 1 1 1 1 1 1 1 1 1 1 1 1 1 1 1 1 1 1 1 1 1 1 1 1 1 1 1 1 1 1 1 1 1 1 1 1 1 1 1 1 1 1 1 1 1 1 1 1 1 1 1 1 1 1 1 1 1 1 1 1 1 1 1 1 1 1 1 1 1 1 1 1 1 1 1 1 1 1 0.999999 0.999996 0.99999 0.999976 0.999946 0.999885 0.999768 0.999562 0.999221 0.99869 0.997916 0.996853 0.995478 0.993793 0.99183 0.989645 0.987308 0.984894 0.982468 0.980082 0.977773 0.975557 0.973442 0.971421 0.969484 0.967618 0.96581 0.964046 0.962316 0.960611 0.958921 0.957242 0.955569 0.953897 0.952222 0.950542 0.948853 0.947151 0.945434 0.943699 0.941942 0.94016 0.938351 0.93651 0.934636 0.932724 0.930773 0.928782 0.926747 0.924667 0.922544 0.920377 0.918169 0.915924 0.913651 0.911363 0.909094 0.909094 
1.08734 1.08724 1.08724 1.08723 1.08722 1.0872 1.08716 1.08714 1.08708 1.08705 1.08696 1.08692 1.0868 1.08675 1.0866 1.08654 1.08636 1.08628 1.08608 1.08597 1.08575 1.08561 1.08537 1.08519 1.08493 1.08469 1.08439 1.08409 1.08374 1.08336 1.08292 1.08244 1.08187 1.08122 1.08046 1.07955 1.07847 1.07722 1.07585 1.07442 1.07308 1.07192 1.07087 1.06957 1.06727 1.06298 1.05592 1.0462 1.03503 1.02426 1.01536 1.00896 1.00484 1.00244 1.00115 1.00051 1.00021 1.00008 1.00003 1.00001 1 1 1 1 1 1 1 1 1 1 1 1 1 1 1 1 1 1 1 1 1 1 1 1 1 1 1 1 1 1 1 1 1 1 1 1 1 1 1 1 1 1 1 1 1 1 1 1 1 1 1 1 1 1 1 1 1 1 1 1 1 1 1 1 1 1 1 1 1 1 1 1 1 1 1 1 1 1 1 1 1 1 1 1 1 1 1 1 1 1 1 1 1 1 1 1 1 1 1 1 1 1 1 1 1 1 1 1 1 1 1 1 1 1 1 1 1 1 1 1 1 1 1 1 1 1 1 1 1 1 1 1 1 1 1 1 1 1 0.999999 0.999997 0.999992 0.99998 0.999955 0.999902 0.999802 0.99962 0.999315 0.998835 0.998125 0.997137 0.995841 0.994234 0.99234 0.99021 0.98791 0.985515 0.983092 0.980699 0.978373 0.976138 0.974 0.971958 0.970003 0.968121 0.966299 0.964524 0.962786 0.961074 0.959381 0.9577 0.956026 0.954355 0.952682 0.951005 0.949321 0.947626 0.945917 0.944192 0.942448 0.940681 0.938889 0.937069 0.935218 0.933335 0.931416 0.929461 0.927467 0.925433 0.92336 0.921248 0.919099 0.916915 0.914704 0.912477 0.910262 0.910262 
1.08716 1.08705 1.08706 1.08705 1.08703 1.08701 1.08698 1.08695 1.08689 1.08686 1.08677 1.08673 1.08661 1.08656 1.08641 1.08635 1.08617 1.08609 1.08589 1.08577 1.08556 1.08541 1.08517 1.08498 1.08471 1.08446 1.08416 1.08385 1.08348 1.08309 1.08263 1.08213 1.08154 1.08086 1.08006 1.07912 1.07802 1.07678 1.07546 1.07415 1.07301 1.07211 1.07137 1.0704 1.06839 1.0643 1.0573 1.04745 1.03603 1.02495 1.01579 1.00919 1.00496 1.00249 1.00117 1.00052 1.00021 1.00008 1.00003 1.00001 1 1 1 1 1 1 1 1 1 1 1 1 1 1 1 1 1 1 1 1 1 1 1 1 1 1 1 1 1 1 1 1 1 1 1 1 1 1 1 1 1 1 1 1 1 1 1 1 1 1 1 1 1 1 1 1 1 1 1 1 1 1 1 1 1 1 1 1 1 1 1 1 1 1 1 1 1 1 1 1 1 1 1 1 1 1 1 1 1 1 1 1 1 1 1 1 1 1 1 1 1 1 1 1 1 1 1 1 1 1 1 1 1 1 1 1 1 1 1 1 1 1 1 1 1 1 1 1 1 1 1 1 1 1 1 1 1 1 0.999999 0.999998 0.999994 0.999984 0.999963 0.999919 0.999833 0.999676 0.999409 0.99898 0.998337 0.997429 0.996221 0.994702 0.992888 0.990823 0.98857 0.986201 0.983786 0.981386 0.979042 0.976784 0.974621 0.972555 0.970577 0.968676 0.966838 0.96505 0.963302 0.961583 0.959885 0.958201 0.956526 0.954854 0.953184 0.95151 0.94983 0.948141 0.94644 0.944724 0.942991 0.941238 0.939463 0.937662 0.935833 0.933975 0.932085 0.930162 0.928204 0.926211 0.924182 0.922118 0.920019 0.917888 0.91573 0.913555 0.911387 0.911387 
1.08697 1.08686 1.08686 1.08686 1.08684 1.08682 1.08679 1.08676 1.0867 1.08667 1.08658 1.08654 1.08641 1.08637 1.08621 1.08615 1.08597 1.08589 1.08568 1.08557 1.08535 1.0852 1.08495 1.08476 1.08448 1.08423 1.08391 1.08359 1.08321 1.0828 1.08233 1.08181 1.08119 1.08048 1.07965 1.07868 1.07757 1.07636 1.07511 1.07395 1.07302 1.0724 1.07197 1.07131 1.06956 1.06563 1.05865 1.04866 1.03697 1.02559 1.01618 1.0094 1.00506 1.00254 1.00119 1.00052 1.00022 1.00008 1.00003 1.00001 1 1 1 1 1 1 1 1 1 1 1 1 1 1 1 1 1 1 1 1 1 1 1 1 1 1 1 1 1 1 1 1 1 1 1 1 1 1 1 1 1 1 1 1 1 1 1 1 1 1 1 1 1 1 1 1 1 1 1 1 1 1 1 1 1 1 1 1 1 1 1 1 1 1 1 1 1 1 1 1 1 1 1 1 1 1 1 1 1 1 1 1 1 1 1 1 1 1 1 1 1 1 1 1 1 1 1 1 1 1 1 1 1 1 1 1 1 1 1 1 1 1 1 1 1 1 1 1 1 1 1 1 1 1 1 1 1 1 0.999999 0.999998 0.999995 0.999988 0.999971 0.999934 0.999863 0.999729 0.999498 0.999122 0.998548 0.997724 0.996611 0.995189 0.993467 0.99148 0.989284 0.986951 0.98455 0.982145 0.979785 0.977501 0.97531 0.973215 0.971211 0.969287 0.96743 0.965628 0.963867 0.962139 0.960435 0.958747 0.957069 0.955398 0.953728 0.952056 0.95038 0.948697 0.947003 0.945296 0.943574 0.941834 0.940073 0.93829 0.936481 0.934646 0.932783 0.930889 0.928963 0.927006 0.925015 0.922992 0.920937 0.918852 0.91674 0.914611 0.912484 0.912484 
1.08678 1.08667 1.08667 1.08666 1.08664 1.08663 1.08659 1.08657 1.0865 1.08647 1.08638 1.08634 1.08621 1.08616 1.08601 1.08595 1.08577 1.08568 1.08548 1.08536 1.08514 1.08498 1.08473 1.08453 1.08425 1.08398 1.08366 1.08332 1.08293 1.08251 1.08202 1.08147 1.08083 1.08008 1.07922 1.07823 1.07712 1.07595 1.07481 1.07383 1.07314 1.0728 1.07268 1.0723 1.07078 1.06697 1.05996 1.0498 1.03785 1.02618 1.01652 1.00958 1.00515 1.00258 1.00121 1.00053 1.00022 1.00008 1.00003 1.00001 1 1 1 1 1 1 1 1 1 1 1 1 1 1 1 1 1 1 1 1 1 1 1 1 1 1 1 1 1 1 1 1 1 1 1 1 1 1 1 1 1 1 1 1 1 1 1 1 1 1 1 1 1 1 1 1 1 1 1 1 1 1 1 1 1 1 1 1 1 1 1 1 1 1 1 1 1 1 1 1 1 1 1 1 1 1 1 1 1 1 1 1 1 1 1 1 1 1 1 1 1 1 1 1 1 1 1 1 1 1 1 1 1 1 1 1 1 1 1 1 1 1 1 1 1 1 1 1 1 1 1 1 1 1 1 1 1 1 1 0.999999 0.999996 0.999991 0.999977 0.999948 0.999889 0.999778 0.999582 0.999257 0.998752 0.998016 0.997003 0.995687 0.994068 0.992171 0.990047 0.98776 0.985382 0.982979 0.980604 0.978294 0.976072 0.973946 0.971911 0.96996 0.968081 0.966259 0.964485 0.962746 0.961033 0.95934 0.957659 0.955986 0.954316 0.952647 0.950974 0.949296 0.947608 0.945909 0.944197 0.942469 0.940722 0.938955 0.937165 0.935351 0.93351 0.931643 0.929746 0.92782 0.925864 0.923878 0.921862 0.919816 0.917746 0.915657 0.913567 0.913567 
1.08658 1.08646 1.08647 1.08646 1.08644 1.08642 1.08639 1.08636 1.0863 1.08627 1.08617 1.08613 1.08601 1.08596 1.0858 1.08574 1.08555 1.08547 1.08526 1.08514 1.08491 1.08475 1.0845 1.08429 1.084 1.08373 1.08339 1.08304 1.08263 1.08219 1.08168 1.08111 1.08043 1.07966 1.07877 1.07777 1.07669 1.07559 1.07458 1.0738 1.07337 1.07332 1.07349 1.07337 1.07203 1.0683 1.06123 1.05088 1.03864 1.0267 1.01682 1.00974 1.00522 1.00261 1.00122 1.00054 1.00022 1.00009 1.00003 1.00001 1 1 1 1 1 1 1 1 1 1 1 1 1 1 1 1 1 1 1 1 1 1 1 1 1 1 1 1 1 1 1 1 1 1 1 1 1 1 1 1 1 1 1 1 1 1 1 1 1 1 1 1 1 1 1 1 1 1 1 1 1 1 1 1 1 1 1 1 1 1 1 1 1 1 1 1 1 1 1 1 1 1 1 1 1 1 1 1 1 1 1 1 1 1 1 1 1 1 1 1 1 1 1 1 1 1 1 1 1 1 1 1 1 1 1 1 1 1 1 1 1 1 1 1 1 1 1 1 1 1 1 1 1 1 1 1 1 1 1 0.999999 0.999997 0.999993 0.999983 0.99996 0.999913 0.999822 0.999659 0.999383 0.998947 0.998298 0.997388 0.996186 0.994681 0.992888 0.990849 0.988623 0.98628 0.983887 0.981502 0.979168 0.976914 0.974752 0.972683 0.9707 0.968794 0.966951 0.965158 0.963405 0.961683 0.959982 0.958297 0.956621 0.954951 0.953283 0.951613 0.949939 0.948257 0.946566 0.944862 0.943145 0.941411 0.939658 0.937885 0.93609 0.934271 0.932428 0.930557 0.92866 0.926734 0.924781 0.922799 0.920789 0.918755 0.916703 0.914646 0.914646 
1.08637 1.08625 1.08626 1.08625 1.08623 1.08622 1.08618 1.08615 1.08609 1.08606 1.08596 1.08592 1.08579 1.08574 1.08559 1.08552 1.08533 1.08524 1.08503 1.08491 1.08468 1.08451 1.08425 1.08403 1.08373 1.08345 1.0831 1.08274 1.08232 1.08186 1.08132 1.08072 1.08002 1.07922 1.07831 1.07731 1.07628 1.07528 1.07444 1.07389 1.07373 1.07397 1.07441 1.0745 1.07331 1.06961 1.06244 1.05187 1.03937 1.02716 1.01708 1.00987 1.00528 1.00263 1.00123 1.00054 1.00022 1.00009 1.00003 1.00001 1 1 1 1 1 1 1 1 1 1 1 1 1 1 1 1 1 1 1 1 1 1 1 1 1 1 1 1 1 1 1 1 1 1 1 1 1 1 1 1 1 1 1 1 1 1 1 1 1 1 1 1 1 1 1 1 1 1 1 1 1 1 1 1 1 1 1 1 1 1 1 1 1 1 1 1 1 1 1 1 1 1 1 1 1 1 1 1 1 1 1 1 1 1 1 1 1 1 1 1 1 1 1 1 1 1 1 1 1 1 1 1 1 1 1 1 1 1 1 1 1 1 1 1 1 1 1 1 1 1 1 1 1 1 1 1 1 1 1 0.999999 0.999998 0.999995 0.999987 0.999969 0.999933 0.99986 0.999727 0.999498 0.999127 0.998565 0.997761 0.996678 0.995295 0.993619 0.991681 0.989533 0.987239 0.984867 0.98248 0.980126 0.97784 0.97564 0.973533 0.971515 0.969577 0.967707 0.965893 0.964123 0.962388 0.960678 0.958986 0.957307 0.955635 0.953967 0.952299 0.950628 0.948952 0.947267 0.945572 0.943864 0.942142 0.940403 0.938645 0.936868 0.935068 0.933246 0.9314 0.929528 0.92763 0.925706 0.923755 0.921778 0.919777 0.917757 0.915731 0.915731 
1.08616 1.08603 1.08604 1.08603 1.08601 1.086 1.08596 1.08594 1.08587 1.08584 1.08574 1.0857 1.08557 1.08552 1.08536 1.08529 1.0851 1.08501 1.0848 1.08467 1.08443 1.08426 1.08399 1.08376 1.08346 1.08316 1.0828 1.08243 1.08198 1.0815 1.08094 1.08031 1.07958 1.07875 1.07784 1.07687 1.07591 1.07505 1.07441 1.07411 1.07423 1.07474 1.07542 1.0757 1.0746 1.07088 1.06358 1.05279 1.04001 1.02756 1.0173 1.00998 1.00533 1.00265 1.00124 1.00054 1.00022 1.00009 1.00003 1.00001 1 1 1 1 1 1 1 1 1 1 1 1 1 1 1 1 1 1 1 1 1 1 1 1 1 1 1 1 1 1 1 1 1 1 1 1 1 1 1 1 1 1 1 1 1 1 1 1 1 1 1 1 1 1 1 1 1 1 1 1 1 1 1 1 1 1 1 1 1 1 1 1 1 1 1 1 1 1 1 1 1 1 1 1 1 1 1 1 1 1 1 1 1 1 1 1 1 1 1 1 1 1 1 1 1 1 1 1 1 1 1 1 1 1 1 1 1 1 1 1 1 1 1 1 1 1 1 1 1 1 1 1 1 1 1 1 1 1 1 1 0.999999 0.999996 0.999991 0.999978 0.999949 0.999893 0.999786 0.999599 0.99929 0.998812 0.998113 0.997152 0.9959 0.994354 0.992532 0.990477 0.98825 0.985915 0.983537 0.98117 0.978855 0.976617 0.974469 0.97241 0.970436 0.968534 0.966695 0.964904 0.963153 0.961431 0.959731 0.958046 0.956371 0.954702 0.953035 0.951367 0.949694 0.948015 0.946328 0.944629 0.942917 0.941191 0.939448 0.937686 0.935905 0.934102 0.932278 0.930429 0.928557 0.92666 0.924737 0.922789 0.920818 0.918828 0.91683 0.91683 
1.08594 1.08581 1.08581 1.0858 1.08579 1.08577 1.08574 1.08571 1.08564 1.08561 1.08551 1.08547 1.08534 1.08528 1.08512 1.08505 1.08486 1.08476 1.08455 1.08442 1.08417 1.08399 1.08371 1.08348 1.08316 1.08286 1.08248 1.08209 1.08163 1.08112 1.08053 1.07987 1.07911 1.07827 1.07737 1.07646 1.0756 1.07492 1.07451 1.07447 1.07487 1.07564 1.07653 1.07694 1.07588 1.07211 1.06465 1.05362 1.04058 1.0279 1.01748 1.01006 1.00537 1.00267 1.00124 1.00054 1.00022 1.00009 1.00003 1.00001 1 1 1 1 1 1 1 1 1 1 1 1 1 1 1 1 1 1 1 1 1 1 1 1 1 1 1 1 1 1 1 1 1 1 1 1 1 1 1 1 1 1 1 1 1 1 1 1 1 1 1 1 1 1 1 1 1 1 1 1 1 1 1 1 1 1 1 1 1 1 1 1 1 1 1 1 1 1 1 1 1 1 1 1 1 1 1 1 1 1 1 1 1 1 1 1 1 1 1 1 1 1 1 1 1 1 1 1 1 1 1 1 1 1 1 1 1 1 1 1 1 1 1 1 1 1 1 1 1 1 1 1 1 1 1 1 1 1 1 1 0.999999 0.999997 0.999993 0.999984 0.999963 0.99992 0.999837 0.999687 0.999435 0.999036 0.998439 0.997601 0.996485 0.995078 0.993387 0.991445 0.989303 0.987023 0.984669 0.9823 0.979963 0.977689 0.975498 0.973396 0.97138 0.969442 0.967571 0.965755 0.963984 0.962247 0.960535 0.958843 0.957163 0.955492 0.953824 0.952157 0.950488 0.948814 0.947133 0.945443 0.943741 0.942025 0.940295 0.938549 0.936784 0.935 0.933195 0.931368 0.929519 0.927646 0.92575 0.923829 0.921886 0.919924 0.917952 0.917952 
1.08571 1.08557 1.08557 1.08556 1.08555 1.08553 1.0855 1.08547 1.0854 1.08536 1.08527 1.08522 1.08509 1.08504 1.08487 1.0848 1.0846 1.0845 1.08428 1.08415 1.08389 1.08371 1.08342 1.08318 1.08285 1.08253 1.08213 1.08173 1.08124 1.08071 1.08009 1.0794 1.07862 1.07779 1.07692 1.0761 1.07539 1.07491 1.07475 1.07499 1.07565 1.07665 1.07771 1.0782 1.07714 1.07327 1.06562 1.05435 1.04107 1.02818 1.01763 1.01013 1.0054 1.00268 1.00125 1.00055 1.00022 1.00009 1.00003 1.00001 1 1 1 1 1 1 1 1 1 1 1 1 1 1 1 1 1 1 1 1 1 1 1 1 1 1 1 1 1 1 1 1 1 1 1 1 1 1 1 1 1 1 1 1 1 1 1 1 1 1 1 1 1 1 1 1 1 1 1 1 1 1 1 1 1 1 1 1 1 1 1 1 1 1 1 1 1 1 1 1 1 1 1 1 1 1 1 1 1 1 1 1 1 1 1 1 1 1 1 1 1 1 1 1 1 1 1 1 1 1 1 1 1 1 1 1 1 1 1 1 1 1 1 1 1 1 1 1 1 1 1 1 1 1 1 1 1 1 1 1 0.999999 0.999998 0.999996 0.999989 0.999973 0.999941 0.999878 0.999762 0.99956 0.999234 0.998735 0.998016 0.997039 0.995779 0.994232 0.99242 0.990384 0.98818 0.98587 0.983514 0.981164 0.97886 0.976628 0.974479 0.972418 0.970438 0.96853 0.966684 0.964888 0.963131 0.961405 0.959702 0.958015 0.956339 0.95467 0.953003 0.951337 0.949667 0.947991 0.946308 0.944615 0.94291 0.941192 0.939459 0.93771 0.935943 0.934156 0.93235 0.930522 0.928672 0.9268 0.924905 0.922988 0.921052 0.919105 0.919105 