# vtk DataFile Version 3.0
LBM simulation at step 250
ASCII
DATASET STRUCTURED_POINTS
DIMENSIONS 256 256 1
ORIGIN 0 0 0
SPACING 1 1 1
POINT_DATA 65536
SCALARS density float
LOOKUP_TABLE default
0.741791 1.08846 1.13519 1.09289 1.08464 1.09342 1.09515 1.09328 1.09264 1.09275 1.09267 1.09246 1.09231 1.09221 1.09212 1.09203 1.09196 1.09189 1.09183 1.09177 1.09172 1.09167 1.09162 1.09157 1.09153 1.09149 1.09145 1.09141 1.09137 1.09133 1.0913 1.09127 1.09123 1.0912 1.09117 1.09114 1.09111 1.09109 1.09106 1.09103 1.091 1.09098 1.09096 1.09093 1.09091 1.09089 1.09086 1.09084 1.09082 1.0908 1.09078 1.09076 1.09073 1.09071 1.09069 1.09067 1.09065 1.09064 1.09062 1.0906 1.09058 1.09056 1.09054 1.09052 1.0905 1.09048 1.09047 1.09045 1.09043 1.09041 1.09039 1.09038 1.09036 1.09034 1.09032 1.0903 1.09028 1.09027 1.09025 1.09023 1.09021 1.09019 1.09017 1.09015 1.09014 1.09012 1.0901 1.09008 1.09006 1.09004 1.09002 1.09 1.08998 1.08996 1.08994 1.08991 1.08989 1.08986 1.08984 1.08981 1.08977 1.08973 1.08968 1.08961 1.08952 1.08941 1.08927 1.08909 1.08886 1.08857 1.08822 1.08779 1.08728 1.08669 1.08602 1.08526 1.08442 1.0835 1.08252 1.08148 1.0804 1.07928 1.07815 1.07701 1.07588 1.07476 1.07366 1.0726 1.07157 1.07058 1.06963 1.06872 1.06785 1.06701 1.06617 1.06529 1.06431 1.06314 1.06165 1.05966 1.05697 1.05337 1.04866 1.04274 1.03565 1.02758 1.01892 1.01013 1.00171 0.994079 0.987493 0.982048 0.977701 0.97432 0.971734 0.969766 0.968261 0.967088 0.966149 0.965369 0.964694 0.964088 0.963527 0.962994 0.962478 0.961972 0.961474 0.960979 0.960488 0.959998 0.959509 0.959021 0.958534 0.958047 0.95756 0.957073 0.956586 0.956099 0.955612 0.955124 0.954636 0.954147 0.953657 0.953166 0.952675 0.952182 0.951688 0.951192 0.950695 0.950196 0.949695 0.949192 0.948688 0.94818 0.947671 0.947158 0.946643 0.946125 0.945604 0.945079 0.94455 0.944018 0.943482 0.942942 0.942396 0.941846 0.941291 0.940731 0.940165 0.939592 0.939014 0.938428 0.937835 0.937234 0.936625 0.936007 0.93538 0.934742 0.934094 0.933434 0.932762 0.932077 0.931378 0.930663 0.929932 0.929183 0.928415 0.927625 0.926813 0.925976 0.925111 0.924216 0.923287 0.922322 0.921316 0.920264 0.91916 0.917999 0.916771 0.915467 0.914075 0.912581 0.910968 0.90921 0.907278 0.905139 0.90274 0.899965 0.896713 0.893063 0.888637 0.881426 0.872008 0.867083 0.845307 0.690606 
1.13155 1.06487 1.05991 1.09504 1.09846 1.09293 1.092 1.09309 1.09316 1.09276 1.09254 1.09245 1.09233 1.09222 1.09212 1.09203 1.09195 1.09189 1.09182 1.09177 1.09171 1.09166 1.09161 1.09157 1.09152 1.09148 1.09144 1.0914 1.09136 1.09133 1.09129 1.09126 1.09122 1.0912 1.09116 1.09114 1.0911 1.09108 1.09105 1.09103 1.091 1.09097 1.09095 1.09093 1.0909 1.09088 1.09085 1.09083 1.09081 1.09079 1.09077 1.09075 1.09072 1.09071 1.09068 1.09066 1.09064 1.09063 1.09061 1.09059 1.09057 1.09055 1.09053 1.09051 1.09049 1.09047 1.09045 1.09044 1.09042 1.0904 1.09038 1.09036 1.09034 1.09033 1.09031 1.09029 1.09027 1.09025 1.09023 1.09021 1.09019 1.09018 1.09016 1.09014 1.09012 1.0901 1.09008 1.09006 1.09004 1.09002 1.09 1.08998 1.08996 1.08993 1.08991 1.08989 1.08987 1.08984 1.08981 1.08978 1.08974 1.08969 1.08964 1.08957 1.08948 1.08936 1.08921 1.08902 1.08878 1.08848 1.08812 1.08768 1.08717 1.08657 1.08589 1.08512 1.08428 1.08336 1.08237 1.08134 1.08026 1.07915 1.07802 1.07689 1.07575 1.07464 1.07354 1.07248 1.07145 1.07045 1.06949 1.06857 1.06767 1.06679 1.0659 1.06496 1.0639 1.06263 1.06104 1.05896 1.05622 1.05265 1.04808 1.04243 1.0357 1.02804 1.01975 1.01123 1.00295 0.995322 0.988628 0.983013 0.978476 0.974913 0.972168 0.970074 0.968471 0.967228 0.966238 0.965423 0.964725 0.964104 0.963533 0.962993 0.962473 0.961965 0.961465 0.96097 0.960478 0.959987 0.959498 0.95901 0.958522 0.958035 0.957548 0.957061 0.956573 0.956086 0.955599 0.955111 0.954622 0.954133 0.953642 0.953151 0.952659 0.952166 0.951671 0.951175 0.950678 0.950178 0.949677 0.949174 0.948669 0.948161 0.947651 0.947138 0.946622 0.946103 0.945581 0.945056 0.944526 0.943994 0.943456 0.942915 0.942369 0.941818 0.941262 0.940701 0.940133 0.93956 0.93898 0.938393 0.937798 0.937196 0.936585 0.935966 0.935336 0.934697 0.934047 0.933385 0.93271 0.932023 0.93132 0.930603 0.929868 0.929115 0.928343 0.927549 0.926732 0.925889 0.925018 0.924117 0.923181 0.922208 0.921192 0.92013 0.919014 0.917838 0.916595 0.915272 0.913859 0.91234 0.910696 0.908903 0.906929 0.904725 0.902241 0.89944 0.896155 0.891946 0.886925 0.882081 0.874021 0.851078 0.828443 0.828443 
1.1408 1.069 1.07783 1.09739 1.09431 1.09172 1.09273 1.09329 1.09291 1.09264 1.09255 1.09245 1.09231 1.0922 1.0921 1.09202 1.09194 1.09188 1.09181 1.09176 1.0917 1.09165 1.0916 1.09156 1.09151 1.09148 1.09143 1.0914 1.09135 1.09132 1.09128 1.09126 1.09122 1.09119 1.09115 1.09113 1.09109 1.09107 1.09104 1.09102 1.09099 1.09097 1.09094 1.09092 1.09089 1.09087 1.09084 1.09082 1.0908 1.09078 1.09076 1.09074 1.09071 1.0907 1.09067 1.09065 1.09063 1.09061 1.09059 1.09058 1.09056 1.09054 1.09052 1.0905 1.09048 1.09046 1.09044 1.09042 1.0904 1.09039 1.09037 1.09035 1.09033 1.09031 1.09029 1.09027 1.09025 1.09024 1.09022 1.0902 1.09018 1.09016 1.09014 1.09012 1.0901 1.09008 1.09006 1.09004 1.09002 1.09 1.08998 1.08996 1.08993 1.08991 1.08989 1.08986 1.08984 1.08981 1.08978 1.08975 1.08971 1.08966 1.0896 1.08953 1.08943 1.08931 1.08916 1.08896 1.08871 1.08841 1.08804 1.08759 1.08707 1.08646 1.08577 1.085 1.08414 1.08322 1.08224 1.0812 1.08012 1.07901 1.07788 1.07675 1.07562 1.0745 1.07341 1.07234 1.0713 1.0703 1.06932 1.06838 1.06746 1.06654 1.0656 1.06459 1.06346 1.06213 1.06047 1.05836 1.05563 1.05214 1.04774 1.04234 1.03592 1.0286 1.02061 1.0123 1.00411 0.996454 0.989651 0.983877 0.979166 0.975439 0.972555 0.970348 0.968659 0.967353 0.966319 0.965473 0.964754 0.96412 0.96354 0.962995 0.962472 0.961962 0.961461 0.960964 0.960472 0.959981 0.959491 0.959003 0.958515 0.958027 0.95754 0.957052 0.956565 0.956078 0.95559 0.955101 0.954612 0.954123 0.953632 0.953141 0.952649 0.952155 0.95166 0.951164 0.950666 0.950166 0.949664 0.949161 0.948655 0.948147 0.947636 0.947123 0.946606 0.946087 0.945565 0.945039 0.944509 0.943975 0.943438 0.942896 0.942349 0.941798 0.941241 0.940679 0.94011 0.939536 0.938955 0.938367 0.937772 0.937168 0.936557 0.935936 0.935305 0.934665 0.934013 0.93335 0.932674 0.931985 0.931281 0.930561 0.929824 0.92907 0.928295 0.927498 0.926679 0.925833 0.924959 0.924054 0.923115 0.922138 0.921118 0.920051 0.91893 0.917749 0.9165 0.915172 0.913753 0.912228 0.910578 0.90878 0.906807 0.904618 0.902138 0.899314 0.896176 0.892434 0.887308 0.881694 0.87789 0.868582 0.852706 0.852706 
1.0575 1.09341 1.10626 1.08861 1.08845 1.09377 1.09387 1.09265 1.09253 1.09268 1.09257 1.09239 1.09227 1.09218 1.09209 1.092 1.09193 1.09186 1.0918 1.09174 1.09169 1.09164 1.09159 1.09155 1.0915 1.09147 1.09142 1.09139 1.09134 1.09132 1.09127 1.09125 1.09121 1.09118 1.09114 1.09112 1.09108 1.09107 1.09103 1.09101 1.09098 1.09096 1.09093 1.09091 1.09088 1.09086 1.09083 1.09082 1.09079 1.09077 1.09075 1.09073 1.0907 1.09069 1.09066 1.09064 1.09062 1.0906 1.09058 1.09056 1.09054 1.09052 1.0905 1.09049 1.09047 1.09045 1.09043 1.09041 1.09039 1.09037 1.09035 1.09033 1.09031 1.0903 1.09028 1.09026 1.09024 1.09022 1.0902 1.09018 1.09016 1.09014 1.09012 1.0901 1.09008 1.09006 1.09004 1.09002 1.09 1.08998 1.08995 1.08993 1.08991 1.08989 1.08986 1.08984 1.08981 1.08978 1.08975 1.08972 1.08968 1.08963 1.08957 1.08949 1.08939 1.08927 1.08911 1.0889 1.08865 1.08834 1.08796 1.0875 1.08697 1.08636 1.08566 1.08488 1.08402 1.0831 1.08211 1.08107 1.07998 1.07888 1.07775 1.07662 1.07549 1.07437 1.07327 1.0722 1.07116 1.07014 1.06916 1.06819 1.06725 1.0663 1.06532 1.06426 1.06309 1.0617 1.06 1.05787 1.05516 1.05174 1.04748 1.04229 1.03614 1.0291 1.02137 1.01326 1.00517 0.997511 0.99062 0.984707 0.979837 0.975956 0.972938 0.970622 0.96885 0.967481 0.966403 0.965527 0.964788 0.96414 0.963552 0.963001 0.962475 0.961963 0.96146 0.960963 0.96047 0.959978 0.959489 0.959 0.958511 0.958024 0.957536 0.957049 0.956561 0.956073 0.955585 0.955097 0.954607 0.954118 0.953627 0.953135 0.952643 0.952149 0.951654 0.951157 0.950659 0.950159 0.949657 0.949153 0.948647 0.948138 0.947627 0.947114 0.946597 0.946077 0.945554 0.945028 0.944498 0.943964 0.943426 0.942884 0.942337 0.941785 0.941228 0.940665 0.940096 0.939521 0.93894 0.938351 0.937756 0.937152 0.936539 0.935918 0.935287 0.934646 0.933994 0.93333 0.932653 0.931963 0.931258 0.930538 0.929801 0.929046 0.92827 0.927473 0.926653 0.925807 0.924933 0.924028 0.923089 0.922112 0.921093 0.920027 0.918909 0.917731 0.916486 0.915164 0.913754 0.912242 0.910611 0.908838 0.906895 0.90476 0.902399 0.899688 0.896539 0.89323 0.889575 0.883721 0.876879 0.874323 0.871308 0.871308 
1.09709 1.09688 1.0893 1.08937 1.09439 1.0934 1.09218 1.09255 1.09282 1.09262 1.09242 1.09233 1.09225 1.09215 1.09205 1.09198 1.0919 1.09184 1.09178 1.09173 1.09167 1.09163 1.09158 1.09154 1.09149 1.09146 1.09141 1.09138 1.09133 1.09131 1.09126 1.09124 1.09119 1.09118 1.09113 1.09112 1.09107 1.09106 1.09102 1.091 1.09097 1.09095 1.09092 1.0909 1.09087 1.09085 1.09082 1.09081 1.09078 1.09076 1.09073 1.09072 1.09069 1.09068 1.09065 1.09063 1.09061 1.09059 1.09057 1.09055 1.09053 1.09051 1.09049 1.09047 1.09045 1.09043 1.09041 1.0904 1.09038 1.09036 1.09034 1.09032 1.0903 1.09028 1.09026 1.09024 1.09022 1.0902 1.09018 1.09016 1.09014 1.09012 1.0901 1.09008 1.09006 1.09004 1.09002 1.09 1.08998 1.08995 1.08993 1.08991 1.08989 1.08986 1.08984 1.08981 1.08979 1.08976 1.08972 1.08969 1.08965 1.0896 1.08953 1.08945 1.08935 1.08922 1.08906 1.08885 1.08859 1.08827 1.08788 1.08742 1.08688 1.08626 1.08556 1.08477 1.08391 1.08298 1.08199 1.08094 1.07986 1.07875 1.07763 1.07649 1.07536 1.07425 1.07315 1.07207 1.07102 1.07 1.069 1.06803 1.06706 1.06608 1.06506 1.06397 1.06274 1.06131 1.05957 1.05741 1.05472 1.05137 1.04724 1.04225 1.03635 1.02959 1.02211 1.01418 1.00619 0.998533 0.991562 0.985517 0.980495 0.976466 0.973317 0.970894 0.96904 0.967611 0.96649 0.965584 0.964825 0.964164 0.963567 0.963011 0.962481 0.961967 0.961463 0.960965 0.960471 0.95998 0.95949 0.959001 0.958512 0.958024 0.957537 0.957049 0.956561 0.956073 0.955585 0.955096 0.954607 0.954117 0.953626 0.953134 0.952641 0.952147 0.951652 0.951155 0.950657 0.950156 0.949654 0.94915 0.948644 0.948135 0.947624 0.94711 0.946593 0.946073 0.94555 0.945024 0.944494 0.94396 0.943421 0.942879 0.942332 0.941779 0.941222 0.940659 0.94009 0.939515 0.938934 0.938345 0.937749 0.937145 0.936533 0.935912 0.935281 0.93464 0.933987 0.933324 0.932647 0.931958 0.931254 0.930534 0.929797 0.929043 0.928269 0.927473 0.926654 0.92581 0.924939 0.924037 0.923101 0.922129 0.921115 0.920056 0.918946 0.917779 0.916547 0.915243 0.913854 0.91237 0.910775 0.909055 0.907183 0.905124 0.902876 0.900431 0.897606 0.894316 0.891217 0.888044 0.883023 0.879041 0.87731 0.87731 
1.099 1.09216 1.09019 1.09481 1.0933 1.09159 1.09255 1.09295 1.09259 1.09239 1.09237 1.09231 1.09219 1.0921 1.09202 1.09195 1.09188 1.09182 1.09176 1.09171 1.09165 1.09161 1.09156 1.09153 1.09147 1.09144 1.0914 1.09137 1.09132 1.0913 1.09125 1.09123 1.09118 1.09117 1.09112 1.09111 1.09106 1.09105 1.09101 1.09099 1.09095 1.09094 1.0909 1.09089 1.09086 1.09084 1.09081 1.0908 1.09076 1.09075 1.09072 1.09071 1.09068 1.09066 1.09064 1.09062 1.0906 1.09058 1.09056 1.09054 1.09052 1.0905 1.09048 1.09046 1.09044 1.09042 1.0904 1.09038 1.09036 1.09034 1.09032 1.0903 1.09028 1.09026 1.09024 1.09023 1.09021 1.09019 1.09017 1.09015 1.09012 1.0901 1.09008 1.09006 1.09004 1.09002 1.09 1.08998 1.08995 1.08993 1.08991 1.08989 1.08986 1.08984 1.08981 1.08979 1.08976 1.08973 1.0897 1.08966 1.08961 1.08956 1.0895 1.08941 1.08931 1.08918 1.08901 1.0888 1.08853 1.08821 1.08782 1.08735 1.0868 1.08617 1.08546 1.08467 1.0838 1.08287 1.08188 1.08083 1.07975 1.07864 1.07751 1.07638 1.07525 1.07413 1.07303 1.07196 1.0709 1.06987 1.06886 1.06787 1.06687 1.06587 1.06481 1.06368 1.06241 1.06093 1.05915 1.05699 1.05432 1.05104 1.04704 1.04223 1.03657 1.03006 1.02281 1.01507 1.00718 0.999524 0.99248 0.986311 0.981142 0.976968 0.973691 0.971165 0.96923 0.967742 0.966578 0.965643 0.964865 0.964191 0.963586 0.963025 0.962491 0.961975 0.96147 0.960972 0.960477 0.959985 0.959495 0.959006 0.958517 0.958029 0.957541 0.957053 0.956565 0.956077 0.955589 0.9551 0.95461 0.95412 0.953629 0.953137 0.952644 0.95215 0.951655 0.951158 0.950659 0.950159 0.949657 0.949152 0.948646 0.948137 0.947626 0.947112 0.946595 0.946075 0.945552 0.945026 0.944495 0.943961 0.943423 0.94288 0.942333 0.941781 0.941224 0.940661 0.940093 0.939518 0.938936 0.938348 0.937752 0.937149 0.936537 0.935916 0.935286 0.934645 0.933994 0.933331 0.932656 0.931967 0.931265 0.930547 0.929812 0.92906 0.928288 0.927495 0.92668 0.92584 0.924973 0.924077 0.923148 0.922184 0.92118 0.920132 0.919036 0.917885 0.916674 0.915395 0.914038 0.912594 0.911049 0.909391 0.907608 0.905675 0.903547 0.901254 0.898854 0.896074 0.892824 0.890028 0.887355 0.884362 0.882319 0.882319 
1.09021 1.09268 1.09414 1.09297 1.09165 1.09273 1.09294 1.09243 1.09235 1.09242 1.09234 1.09221 1.09213 1.09206 1.09198 1.09191 1.09184 1.09179 1.09173 1.09168 1.09163 1.09159 1.09154 1.09151 1.09146 1.09143 1.09138 1.09135 1.09131 1.09128 1.09124 1.09122 1.09117 1.09116 1.09111 1.0911 1.09105 1.09104 1.09099 1.09098 1.09094 1.09093 1.09089 1.09088 1.09084 1.09083 1.0908 1.09079 1.09075 1.09074 1.09071 1.0907 1.09067 1.09065 1.09063 1.09061 1.09058 1.09057 1.09054 1.09053 1.0905 1.09049 1.09046 1.09045 1.09043 1.09041 1.09039 1.09037 1.09035 1.09033 1.09031 1.09029 1.09027 1.09025 1.09023 1.09021 1.09019 1.09017 1.09015 1.09013 1.09011 1.09009 1.09006 1.09004 1.09002 1.09 1.08998 1.08996 1.08993 1.08991 1.08989 1.08986 1.08984 1.08981 1.08979 1.08976 1.08973 1.0897 1.08967 1.08963 1.08958 1.08953 1.08946 1.08938 1.08927 1.08914 1.08896 1.08875 1.08848 1.08815 1.08775 1.08728 1.08672 1.08609 1.08537 1.08458 1.08371 1.08277 1.08178 1.08073 1.07965 1.07854 1.07741 1.07628 1.07515 1.07403 1.07293 1.07184 1.07078 1.06974 1.06872 1.06771 1.06669 1.06566 1.06457 1.0634 1.06208 1.06056 1.05876 1.05659 1.05395 1.05074 1.04687 1.04224 1.0368 1.03053 1.02351 1.01594 1.00814 1.00049 0.993376 0.987088 0.981777 0.977463 0.974062 0.971433 0.969419 0.967873 0.966668 0.965705 0.964907 0.964221 0.963607 0.963041 0.962505 0.961987 0.96148 0.960981 0.960486 0.959994 0.959503 0.959014 0.958525 0.958037 0.957549 0.957061 0.956573 0.956085 0.955596 0.955107 0.954618 0.954128 0.953637 0.953145 0.952652 0.952157 0.951662 0.951165 0.950666 0.950166 0.949664 0.949159 0.948653 0.948144 0.947633 0.947119 0.946602 0.946082 0.945559 0.945033 0.944503 0.943969 0.943431 0.942888 0.942341 0.94179 0.941233 0.94067 0.940102 0.939528 0.938947 0.938359 0.937764 0.937161 0.93655 0.93593 0.935301 0.934662 0.934012 0.933351 0.932677 0.931991 0.93129 0.930575 0.929843 0.929094 0.928326 0.927538 0.926728 0.925894 0.925033 0.924145 0.923225 0.922271 0.92128 0.920247 0.919169 0.91804 0.916854 0.915606 0.914287 0.91289 0.911406 0.909821 0.908125 0.906318 0.904377 0.902247 0.900008 0.897764 0.895217 0.892517 0.890186 0.887922 0.886041 0.886041 
1.09259 1.09288 1.09279 1.09211 1.09269 1.09286 1.09232 1.09233 1.09244 1.09234 1.09221 1.09215 1.09208 1.09201 1.09193 1.09187 1.09181 1.09176 1.0917 1.09166 1.09161 1.09157 1.09152 1.09149 1.09144 1.09141 1.09136 1.09134 1.09129 1.09127 1.09122 1.09121 1.09116 1.09114 1.0911 1.09108 1.09104 1.09103 1.09098 1.09097 1.09093 1.09092 1.09088 1.09087 1.09083 1.09082 1.09078 1.09078 1.09074 1.09073 1.0907 1.09069 1.09065 1.09064 1.09061 1.0906 1.09057 1.09056 1.09053 1.09052 1.09049 1.09047 1.09045 1.09043 1.09041 1.09039 1.09037 1.09035 1.09033 1.09031 1.09029 1.09027 1.09025 1.09023 1.09021 1.09019 1.09017 1.09015 1.09013 1.09011 1.09009 1.09007 1.09005 1.09002 1.09 1.08998 1.08996 1.08993 1.08991 1.08989 1.08986 1.08984 1.08981 1.08979 1.08976 1.08973 1.0897 1.08967 1.08964 1.0896 1.08955 1.0895 1.08943 1.08934 1.08923 1.0891 1.08892 1.0887 1.08843 1.08809 1.08769 1.08721 1.08665 1.08601 1.08529 1.0845 1.08362 1.08268 1.08168 1.08064 1.07955 1.07844 1.07732 1.07618 1.07505 1.07393 1.07283 1.07174 1.07067 1.06962 1.06858 1.06755 1.06652 1.06545 1.06433 1.06312 1.06177 1.06022 1.0584 1.05623 1.05362 1.05049 1.04673 1.04228 1.03704 1.031 1.02419 1.01678 1.00907 1.00143 0.994252 0.987849 0.982402 0.977951 0.974428 0.971699 0.969608 0.968005 0.96676 0.965768 0.964952 0.964253 0.963632 0.963061 0.962522 0.962002 0.961494 0.960994 0.960499 0.960006 0.959516 0.959026 0.958537 0.958049 0.957561 0.957073 0.956585 0.956096 0.955608 0.955119 0.954629 0.954139 0.953648 0.953156 0.952663 0.952168 0.951673 0.951176 0.950677 0.950177 0.949675 0.949171 0.948664 0.948155 0.947644 0.94713 0.946614 0.946094 0.945571 0.945045 0.944515 0.943982 0.943444 0.942902 0.942355 0.941804 0.941247 0.940686 0.940118 0.939544 0.938964 0.938377 0.937783 0.937182 0.936572 0.935953 0.935325 0.934688 0.93404 0.933381 0.932709 0.932026 0.931328 0.930616 0.929888 0.929143 0.92838 0.927598 0.926794 0.925967 0.925115 0.924236 0.923327 0.922386 0.921409 0.920394 0.919336 0.918232 0.917075 0.915862 0.914585 0.913239 0.911817 0.910312 0.908711 0.907008 0.905221 0.903326 0.901265 0.899165 0.897093 0.8949 0.892773 0.89085 0.889172 0.889172 
1.09318 1.09249 1.09228 1.09255 1.09269 1.09231 1.09232 1.09243 1.0923 1.09219 1.09216 1.0921 1.09202 1.09195 1.09189 1.09183 1.09177 1.09173 1.09167 1.09163 1.09158 1.09155 1.0915 1.09147 1.09142 1.09139 1.09135 1.09132 1.09128 1.09126 1.09121 1.09119 1.09114 1.09113 1.09108 1.09107 1.09102 1.09102 1.09097 1.09096 1.09092 1.09091 1.09086 1.09086 1.09082 1.09081 1.09077 1.09077 1.09073 1.09072 1.09068 1.09067 1.09064 1.09063 1.0906 1.09059 1.09056 1.09054 1.09052 1.0905 1.09048 1.09046 1.09044 1.09042 1.0904 1.09038 1.09036 1.09034 1.09032 1.0903 1.09028 1.09026 1.09024 1.09022 1.0902 1.09018 1.09015 1.09013 1.09011 1.09009 1.09007 1.09005 1.09003 1.09 1.08998 1.08996 1.08994 1.08991 1.08989 1.08987 1.08984 1.08982 1.08979 1.08976 1.08974 1.08971 1.08968 1.08965 1.08961 1.08957 1.08952 1.08947 1.0894 1.08931 1.0892 1.08906 1.08888 1.08866 1.08838 1.08804 1.08763 1.08715 1.08659 1.08594 1.08522 1.08442 1.08354 1.0826 1.0816 1.08055 1.07947 1.07836 1.07723 1.0761 1.07496 1.07384 1.07273 1.07164 1.07056 1.0695 1.06845 1.0674 1.06634 1.06525 1.0641 1.06286 1.06147 1.0599 1.05806 1.05589 1.05332 1.05026 1.04663 1.04234 1.0373 1.03146 1.02485 1.0176 1.00997 1.00235 0.995109 0.988597 0.983017 0.978432 0.97479 0.971963 0.969796 0.968137 0.966852 0.965834 0.964999 0.964289 0.96366 0.963084 0.962542 0.96202 0.961511 0.961011 0.960515 0.960022 0.959531 0.959042 0.958553 0.958064 0.957576 0.957088 0.9566 0.956111 0.955623 0.955134 0.954644 0.954154 0.953663 0.953171 0.952678 0.952183 0.951688 0.951191 0.950692 0.950192 0.94969 0.949186 0.94868 0.948171 0.94766 0.947146 0.94663 0.946111 0.945588 0.945062 0.944533 0.943999 0.943462 0.94292 0.942374 0.941824 0.941268 0.940707 0.94014 0.939567 0.938988 0.938402 0.93781 0.937209 0.936601 0.935984 0.935358 0.934722 0.934077 0.93342 0.932752 0.932071 0.931377 0.930669 0.929945 0.929205 0.928448 0.927672 0.926875 0.926056 0.925214 0.924345 0.923449 0.922522 0.921562 0.920566 0.91953 0.918452 0.917327 0.91615 0.914917 0.913624 0.912263 0.910833 0.90933 0.907741 0.906068 0.904341 0.902536 0.900633 0.898741 0.896876 0.895019 0.893287 0.891768 0.891768 
1.09225 1.09241 1.09247 1.09247 1.09231 1.09229 1.09238 1.09226 1.09217 1.09215 1.0921 1.09202 1.09196 1.09191 1.09185 1.09179 1.09174 1.09169 1.09164 1.0916 1.09156 1.09152 1.09148 1.09145 1.0914 1.09137 1.09133 1.09131 1.09126 1.09124 1.09119 1.09118 1.09113 1.09112 1.09107 1.09106 1.09101 1.091 1.09095 1.09095 1.0909 1.0909 1.09085 1.09085 1.0908 1.0908 1.09076 1.09075 1.09071 1.09071 1.09067 1.09066 1.09063 1.09062 1.09058 1.09057 1.09054 1.09053 1.0905 1.09049 1.09046 1.09045 1.09042 1.09041 1.09038 1.09037 1.09034 1.09032 1.0903 1.09028 1.09026 1.09024 1.09022 1.0902 1.09018 1.09016 1.09014 1.09012 1.0901 1.09007 1.09005 1.09003 1.09001 1.08999 1.08996 1.08994 1.08992 1.08989 1.08987 1.08984 1.08982 1.08979 1.08977 1.08974 1.08971 1.08968 1.08965 1.08962 1.08958 1.08954 1.08949 1.08943 1.08936 1.08927 1.08916 1.08902 1.08884 1.08861 1.08833 1.08799 1.08758 1.08709 1.08653 1.08588 1.08515 1.08435 1.08347 1.08252 1.08152 1.08047 1.07939 1.07828 1.07715 1.07601 1.07488 1.07376 1.07264 1.07154 1.07046 1.06939 1.06832 1.06726 1.06618 1.06506 1.06388 1.06261 1.0612 1.05959 1.05775 1.05559 1.05306 1.05008 1.04656 1.04242 1.03756 1.03193 1.0255 1.0184 1.01086 1.00324 0.995948 0.989331 0.983622 0.978908 0.975148 0.972225 0.969984 0.96827 0.966946 0.965901 0.965049 0.964327 0.963691 0.96311 0.962565 0.962042 0.961532 0.961031 0.960534 0.960041 0.95955 0.95906 0.958571 0.958083 0.957595 0.957106 0.956618 0.95613 0.955641 0.955152 0.954662 0.954172 0.953681 0.953189 0.952696 0.952202 0.951706 0.951209 0.950711 0.950211 0.949709 0.949205 0.948699 0.948191 0.94768 0.947166 0.94665 0.946131 0.945609 0.945083 0.944554 0.944022 0.943485 0.942944 0.942399 0.941849 0.941293 0.940733 0.940167 0.939596 0.939018 0.938433 0.937842 0.937243 0.936636 0.936021 0.935397 0.934764 0.934121 0.933467 0.932802 0.932125 0.931435 0.930731 0.930013 0.929278 0.928527 0.927758 0.926969 0.926159 0.925327 0.92447 0.923587 0.922675 0.921733 0.920757 0.919745 0.918693 0.9176 0.91646 0.915271 0.91403 0.912731 0.911372 0.909952 0.908474 0.906924 0.905313 0.903674 0.901989 0.900274 0.898595 0.89696 0.895393 0.893989 0.893989 
1.09227 1.09234 1.09232 1.09227 1.09224 1.09228 1.09222 1.09214 1.09213 1.09209 1.09201 1.09196 1.09191 1.09186 1.0918 1.09175 1.0917 1.09166 1.09161 1.09157 1.09153 1.0915 1.09145 1.09142 1.09138 1.09135 1.09131 1.09129 1.09124 1.09122 1.09117 1.09116 1.09111 1.0911 1.09105 1.09104 1.09099 1.09099 1.09094 1.09094 1.09089 1.09089 1.09084 1.09084 1.09079 1.09079 1.09074 1.09074 1.0907 1.0907 1.09065 1.09065 1.09061 1.09061 1.09057 1.09056 1.09053 1.09052 1.09049 1.09048 1.09045 1.09043 1.09041 1.09039 1.09037 1.09035 1.09033 1.09031 1.09029 1.09027 1.09025 1.09023 1.0902 1.09018 1.09016 1.09014 1.09012 1.0901 1.09008 1.09006 1.09003 1.09001 1.08999 1.08997 1.08994 1.08992 1.08989 1.08987 1.08985 1.08982 1.0898 1.08977 1.08974 1.08971 1.08969 1.08966 1.08962 1.08959 1.08955 1.08951 1.08946 1.0894 1.08933 1.08924 1.08912 1.08898 1.0888 1.08857 1.08829 1.08794 1.08753 1.08704 1.08647 1.08582 1.08509 1.08428 1.0834 1.08245 1.08145 1.0804 1.07932 1.0782 1.07708 1.07594 1.0748 1.07368 1.07256 1.07145 1.07036 1.06928 1.0682 1.06712 1.06602 1.06488 1.06367 1.06237 1.06093 1.05931 1.05746 1.05532 1.05283 1.04992 1.04651 1.04252 1.03784 1.03239 1.02614 1.01918 1.01172 1.00412 0.996771 0.990053 0.984219 0.979377 0.975503 0.972486 0.970171 0.968404 0.967042 0.965971 0.965101 0.964368 0.963725 0.96314 0.962592 0.962067 0.961556 0.961054 0.960557 0.960064 0.959573 0.959083 0.958594 0.958105 0.957617 0.957128 0.95664 0.956152 0.955663 0.955174 0.954684 0.954194 0.953703 0.953211 0.952718 0.952224 0.951728 0.951232 0.950733 0.950233 0.949732 0.949228 0.948722 0.948214 0.947703 0.94719 0.946675 0.946156 0.945634 0.945109 0.94458 0.944048 0.943512 0.942972 0.942427 0.941878 0.941324 0.940765 0.9402 0.939629 0.939053 0.93847 0.93788 0.937283 0.936678 0.936065 0.935444 0.934813 0.934172 0.933522 0.93286 0.932187 0.931501 0.930802 0.930089 0.92936 0.928616 0.927854 0.927074 0.926273 0.925451 0.924607 0.923737 0.922841 0.921917 0.920962 0.919973 0.918949 0.917887 0.916785 0.915638 0.914446 0.913207 0.911917 0.910574 0.909184 0.907748 0.906262 0.904743 0.903211 0.901664 0.900131 0.898643 0.897213 0.89591 0.89591 
1.09227 1.09221 1.09219 1.09219 1.09219 1.09216 1.0921 1.09209 1.09206 1.092 1.09195 1.09191 1.09186 1.0918 1.09176 1.09171 1.09166 1.09162 1.09158 1.09154 1.0915 1.09147 1.09143 1.0914 1.09136 1.09133 1.09129 1.09127 1.09122 1.0912 1.09116 1.09114 1.09109 1.09108 1.09103 1.09103 1.09098 1.09098 1.09092 1.09092 1.09087 1.09087 1.09082 1.09082 1.09077 1.09078 1.09073 1.09073 1.09068 1.09068 1.09064 1.09064 1.0906 1.09059 1.09056 1.09055 1.09052 1.09051 1.09047 1.09046 1.09043 1.09042 1.09039 1.09038 1.09035 1.09034 1.09031 1.09029 1.09027 1.09025 1.09023 1.09021 1.09019 1.09017 1.09015 1.09012 1.0901 1.09008 1.09006 1.09004 1.09001 1.08999 1.08997 1.08995 1.08992 1.0899 1.08987 1.08985 1.08982 1.0898 1.08977 1.08975 1.08972 1.08969 1.08966 1.08963 1.0896 1.08956 1.08952 1.08948 1.08943 1.08937 1.0893 1.08921 1.08909 1.08894 1.08876 1.08853 1.08824 1.0879 1.08748 1.08699 1.08642 1.08576 1.08503 1.08422 1.08334 1.08239 1.08139 1.08034 1.07925 1.07814 1.07701 1.07587 1.07473 1.0736 1.07248 1.07137 1.07027 1.06917 1.06808 1.06698 1.06586 1.0647 1.06347 1.06215 1.06069 1.05905 1.0572 1.05507 1.05263 1.04979 1.04649 1.04263 1.03812 1.03285 1.02677 1.01994 1.01257 1.00498 0.99758 0.990764 0.984808 0.979842 0.975855 0.972745 0.970359 0.968538 0.967139 0.966042 0.965156 0.964412 0.963761 0.963172 0.962621 0.962095 0.961583 0.961081 0.960583 0.96009 0.959598 0.959108 0.958619 0.95813 0.957642 0.957154 0.956665 0.956177 0.955688 0.955199 0.954709 0.954219 0.953728 0.953236 0.952743 0.952249 0.951754 0.951257 0.950759 0.950259 0.949758 0.949254 0.948749 0.948241 0.947731 0.947218 0.946703 0.946184 0.945663 0.945139 0.944611 0.944079 0.943544 0.943004 0.94246 0.941912 0.941359 0.940801 0.940237 0.939668 0.939093 0.938511 0.937923 0.937328 0.936725 0.936114 0.935495 0.934867 0.93423 0.933583 0.932925 0.932255 0.931574 0.93088 0.930173 0.92945 0.928713 0.927959 0.927187 0.926396 0.925586 0.924753 0.923898 0.923018 0.922112 0.921177 0.920212 0.919215 0.918184 0.917117 0.916012 0.914867 0.913682 0.912455 0.911186 0.909875 0.908529 0.907152 0.905746 0.904328 0.902912 0.901507 0.900136 0.898814 0.897593 0.897593 
1.09211 1.09211 1.09212 1.09211 1.09209 1.09206 1.09204 1.09202 1.09197 1.09193 1.0919 1.09185 1.0918 1.09176 1.09171 1.09167 1.09163 1.09159 1.09155 1.09151 1.09147 1.09144 1.0914 1.09137 1.09133 1.09131 1.09126 1.09124 1.0912 1.09118 1.09114 1.09112 1.09108 1.09107 1.09102 1.09101 1.09096 1.09096 1.09091 1.09091 1.09086 1.09086 1.09081 1.09081 1.09076 1.09076 1.09071 1.09072 1.09067 1.09067 1.09063 1.09062 1.09058 1.09058 1.09054 1.09053 1.0905 1.09049 1.09046 1.09045 1.09042 1.09041 1.09038 1.09036 1.09034 1.09032 1.0903 1.09028 1.09026 1.09024 1.09021 1.09019 1.09017 1.09015 1.09013 1.09011 1.09009 1.09006 1.09004 1.09002 1.09 1.08997 1.08995 1.08993 1.0899 1.08988 1.08985 1.08983 1.0898 1.08977 1.08975 1.08972 1.08969 1.08966 1.08963 1.0896 1.08957 1.08953 1.0895 1.08945 1.0894 1.08934 1.08926 1.08917 1.08905 1.08891 1.08872 1.08849 1.0882 1.08785 1.08743 1.08694 1.08637 1.08571 1.08498 1.08417 1.08329 1.08234 1.08133 1.08028 1.07919 1.07808 1.07695 1.07581 1.07467 1.07354 1.07241 1.07129 1.07018 1.06908 1.06797 1.06686 1.06572 1.06453 1.06328 1.06193 1.06046 1.05881 1.05696 1.05486 1.05245 1.04969 1.04649 1.04277 1.03841 1.0333 1.02739 1.02069 1.01339 1.00582 0.998373 0.991464 0.985389 0.980301 0.976204 0.973002 0.970546 0.968673 0.967238 0.966116 0.965213 0.964458 0.963801 0.963208 0.962654 0.962126 0.961614 0.96111 0.960613 0.960119 0.959628 0.959137 0.958648 0.958159 0.957671 0.957182 0.956694 0.956205 0.955717 0.955228 0.954738 0.954248 0.953757 0.953265 0.952772 0.952278 0.951783 0.951287 0.950789 0.950289 0.949788 0.949284 0.948779 0.948272 0.947762 0.947249 0.946735 0.946217 0.945696 0.945172 0.944645 0.944114 0.943579 0.94304 0.942497 0.94195 0.941398 0.940841 0.940279 0.939711 0.939137 0.938557 0.937971 0.937378 0.936777 0.936169 0.935552 0.934927 0.934293 0.933649 0.932995 0.93233 0.931654 0.930965 0.930263 0.929547 0.928817 0.928071 0.927308 0.926527 0.925728 0.924908 0.924067 0.923203 0.922315 0.9214 0.920459 0.919488 0.918487 0.917454 0.916388 0.915288 0.914152 0.912982 0.911778 0.910541 0.909274 0.907985 0.906677 0.905359 0.904043 0.902742 0.901467 0.900233 0.899083 0.899083 
1.09202 1.09203 1.09203 1.09202 1.092 1.09199 1.09197 1.09193 1.0919 1.09187 1.09183 1.09179 1.09175 1.09171 1.09167 1.09163 1.09159 1.09155 1.09151 1.09148 1.09144 1.09141 1.09137 1.09135 1.09131 1.09128 1.09124 1.09122 1.09118 1.09116 1.09112 1.0911 1.09106 1.09105 1.091 1.091 1.09094 1.09094 1.09089 1.09089 1.09084 1.09084 1.09079 1.0908 1.09074 1.09075 1.0907 1.0907 1.09065 1.09065 1.09061 1.09061 1.09057 1.09056 1.09053 1.09052 1.09049 1.09048 1.09045 1.09043 1.0904 1.09039 1.09036 1.09035 1.09032 1.09031 1.09028 1.09026 1.09024 1.09022 1.0902 1.09018 1.09015 1.09013 1.09011 1.09009 1.09007 1.09004 1.09002 1.09 1.08998 1.08995 1.08993 1.0899 1.08988 1.08986 1.08983 1.0898 1.08978 1.08975 1.08972 1.0897 1.08967 1.08964 1.08961 1.08958 1.08954 1.08951 1.08947 1.08942 1.08937 1.08931 1.08923 1.08914 1.08902 1.08887 1.08868 1.08845 1.08816 1.08781 1.08739 1.0869 1.08632 1.08567 1.08493 1.08412 1.08324 1.08229 1.08128 1.08023 1.07915 1.07803 1.0769 1.07576 1.07461 1.07347 1.07234 1.07122 1.0701 1.06898 1.06787 1.06674 1.06558 1.06437 1.0631 1.06174 1.06025 1.05859 1.05675 1.05466 1.0523 1.04961 1.04651 1.04291 1.0387 1.03375 1.02799 1.02142 1.0142 1.00664 0.999154 0.992153 0.985963 0.980755 0.97655 0.973258 0.970732 0.968809 0.967338 0.966192 0.965273 0.964507 0.963844 0.963246 0.962691 0.962161 0.961647 0.961144 0.960646 0.960152 0.95966 0.95917 0.95868 0.958191 0.957703 0.957214 0.956726 0.956237 0.955749 0.95526 0.95477 0.95428 0.953789 0.953297 0.952804 0.952311 0.951816 0.951319 0.950822 0.950322 0.949821 0.949318 0.948813 0.948306 0.947796 0.947285 0.94677 0.946253 0.945732 0.945209 0.944682 0.944152 0.943618 0.94308 0.942539 0.941992 0.941441 0.940885 0.940325 0.939758 0.939186 0.938608 0.938024 0.937432 0.936834 0.936228 0.935615 0.934993 0.934362 0.933722 0.933071 0.932411 0.931739 0.931056 0.93036 0.929651 0.928927 0.928189 0.927436 0.926665 0.925877 0.92507 0.924243 0.923394 0.922524 0.921629 0.92071 0.919765 0.918793 0.917793 0.916763 0.915704 0.914615 0.913497 0.91235 0.911178 0.909982 0.908767 0.90754 0.906307 0.905077 0.903859 0.902664 0.901503 0.900413 0.900413 