# vtk DataFile Version 3.0
LBM simulation at step 180
ASCII
DATASET STRUCTURED_POINTS
DIMENSIONS 256 256 1
ORIGIN 0 0 0
SPACING 1 1 1
POINT_DATA 65536
SCALARS density float
LOOKUP_TABLE default
0.741354 1.08782 1.13453 1.09227 1.08404 1.09284 1.09459 1.09275 1.09214 1.09228 1.09222 1.09203 1.0919 1.0918 1.09171 1.09162 1.09153 1.09146 1.09138 1.09131 1.09124 1.09118 1.09111 1.09106 1.091 1.09095 1.09089 1.09085 1.0908 1.09075 1.0907 1.09066 1.09062 1.09058 1.09054 1.0905 1.09046 1.09043 1.09039 1.09035 1.09032 1.09028 1.09025 1.09021 1.09018 1.09014 1.09011 1.09008 1.09004 1.09001 1.08998 1.08994 1.08991 1.08988 1.08984 1.08981 1.08977 1.08974 1.08971 1.08967 1.08963 1.0896 1.08956 1.08952 1.08949 1.08945 1.08941 1.08937 1.08933 1.08929 1.08924 1.0892 1.08915 1.08911 1.08906 1.08901 1.08896 1.0889 1.08885 1.08879 1.08873 1.08866 1.0886 1.08853 1.08845 1.08837 1.08829 1.08821 1.08812 1.08804 1.08796 1.08788 1.08781 1.08771 1.08755 1.08726 1.08671 1.08572 1.08407 1.08147 1.07767 1.07245 1.06578 1.05783 1.04902 1.03994 1.03122 1.02343 1.01689 1.01173 1.00786 1.0051 1.00321 1.00196 1.00116 1.00067 1.00038 1.00021 1.00011 1.00006 1.00003 1.00001 1.00001 1 1 1 1 1 1 1 1 1 1 1 0.999999 0.999999 0.999998 0.999996 0.999992 0.999985 0.999974 0.999956 0.999926 0.999879 0.999809 0.999706 0.999558 0.999355 0.999081 0.998723 0.998269 0.997707 0.997031 0.996239 0.995331 0.994317 0.993207 0.992019 0.990772 0.989485 0.98818 0.986876 0.98559 0.984335 0.983122 0.981957 0.980842 0.979779 0.978763 0.977792 0.97686 0.975961 0.975092 0.974246 0.973421 0.972612 0.971818 0.971036 0.970265 0.969504 0.968751 0.968006 0.967268 0.966537 0.965811 0.96509 0.964375 0.963663 0.962955 0.962251 0.961549 0.960849 0.960152 0.959456 0.958761 0.958067 0.957374 0.956681 0.955988 0.955294 0.954599 0.953903 0.953206 0.952507 0.951805 0.951101 0.950394 0.949684 0.94897 0.948252 0.947529 0.946801 0.946067 0.945328 0.944582 0.943829 0.943068 0.942299 0.941521 0.940733 0.939934 0.939124 0.938301 0.937465 0.936614 0.935747 0.934862 0.933958 0.933034 0.932086 0.931113 0.930112 0.92908 0.928014 0.926909 0.925762 0.924566 0.923315 0.922002 0.920617 0.919149 0.917584 0.915905 0.914087 0.912103 0.90992 0.907485 0.904684 0.901419 0.89778 0.893364 0.886134 0.87678 0.87207 0.850079 0.693966 
1.1309 1.06424 1.05929 1.09441 1.09784 1.09233 1.09143 1.09254 1.09263 1.09226 1.09207 1.09199 1.09189 1.09178 1.09168 1.0916 1.09151 1.09144 1.09136 1.0913 1.09122 1.09117 1.0911 1.09105 1.09098 1.09094 1.09088 1.09083 1.09078 1.09074 1.09069 1.09065 1.0906 1.09057 1.09052 1.09049 1.09045 1.09041 1.09037 1.09034 1.0903 1.09027 1.09023 1.0902 1.09016 1.09013 1.09009 1.09006 1.09002 1.08999 1.08996 1.08992 1.08989 1.08985 1.08982 1.08978 1.08975 1.08971 1.08968 1.08964 1.08961 1.08957 1.08953 1.08949 1.08945 1.08941 1.08937 1.08933 1.08929 1.08924 1.0892 1.08915 1.08911 1.08906 1.08901 1.08895 1.0889 1.08884 1.08878 1.08872 1.08866 1.08859 1.08852 1.08844 1.08836 1.08828 1.08819 1.08809 1.088 1.0879 1.0878 1.0877 1.08758 1.08743 1.08719 1.08679 1.08611 1.085 1.08325 1.08063 1.07692 1.07197 1.06571 1.05825 1.04991 1.04118 1.03264 1.02483 1.01815 1.01276 1.00866 1.00568 1.00361 1.00223 1.00134 1.00078 1.00044 1.00024 1.00013 1.00007 1.00003 1.00002 1.00001 1 1 1 1 1 1 1 1 1 1 1 0.999999 0.999999 0.999997 0.999995 0.999991 0.999983 0.99997 0.99995 0.999916 0.999865 0.999789 0.999677 0.99952 0.999305 0.999018 0.998646 0.998178 0.997603 0.996916 0.996115 0.995203 0.994188 0.993082 0.991901 0.990664 0.989391 0.9881 0.986811 0.985539 0.984297 0.983095 0.981939 0.980831 0.979772 0.978759 0.97779 0.976858 0.975959 0.975088 0.974242 0.973415 0.972605 0.97181 0.971028 0.970256 0.969494 0.96874 0.967995 0.967257 0.966525 0.965799 0.965078 0.964361 0.963649 0.962941 0.962236 0.961533 0.960833 0.960135 0.959439 0.958744 0.958049 0.957355 0.956661 0.955967 0.955273 0.954578 0.953881 0.953183 0.952483 0.95178 0.951075 0.950367 0.949656 0.948941 0.948221 0.947497 0.946768 0.946033 0.945293 0.944545 0.94379 0.943028 0.942257 0.941477 0.940687 0.939886 0.939073 0.938247 0.937408 0.936554 0.935683 0.934795 0.933887 0.932957 0.932005 0.931026 0.930019 0.92898 0.927906 0.926792 0.925635 0.924427 0.923164 0.921835 0.920432 0.918943 0.917353 0.915644 0.913792 0.911766 0.909517 0.906998 0.904173 0.900872 0.896653 0.891647 0.886845 0.878792 0.855741 0.832887 0.832887 
1.14014 1.06838 1.07719 1.09676 1.09368 1.09111 1.09214 1.09272 1.09236 1.09211 1.09204 1.09196 1.09184 1.09174 1.09165 1.09157 1.09149 1.09142 1.09134 1.09128 1.0912 1.09115 1.09108 1.09103 1.09097 1.09092 1.09086 1.09082 1.09076 1.09073 1.09067 1.09064 1.09059 1.09055 1.09051 1.09047 1.09043 1.0904 1.09035 1.09032 1.09028 1.09025 1.09021 1.09018 1.09014 1.09011 1.09007 1.09004 1.09 1.08997 1.08993 1.0899 1.08986 1.08983 1.08979 1.08976 1.08972 1.08969 1.08965 1.08961 1.08957 1.08954 1.0895 1.08946 1.08942 1.08938 1.08933 1.08929 1.08925 1.0892 1.08915 1.08911 1.08906 1.089 1.08895 1.0889 1.08884 1.08878 1.08871 1.08865 1.08858 1.08851 1.08843 1.08835 1.08826 1.08816 1.08806 1.08796 1.08785 1.08773 1.08761 1.08747 1.08731 1.0871 1.08678 1.0863 1.08554 1.08436 1.08258 1.08002 1.07647 1.07178 1.06588 1.05883 1.05085 1.04238 1.03393 1.02608 1.01924 1.01365 1.00934 1.00617 1.00395 1.00245 1.00148 1.00087 1.00049 1.00027 1.00015 1.00008 1.00004 1.00002 1.00001 1 1 1 1 1 1 1 1 1 1 1 0.999999 0.999998 0.999997 0.999994 0.99999 0.999981 0.999968 0.999945 0.999909 0.999855 0.999773 0.999656 0.999491 0.999266 0.998968 0.998585 0.998105 0.997519 0.996821 0.996012 0.995095 0.994078 0.992974 0.991798 0.990568 0.989305 0.988026 0.986749 0.985489 0.984259 0.983068 0.981921 0.980821 0.979767 0.978759 0.977791 0.976861 0.975962 0.975092 0.974244 0.973417 0.972606 0.971811 0.971027 0.970255 0.969492 0.968738 0.967992 0.967253 0.966521 0.965794 0.965073 0.964356 0.963644 0.962935 0.962229 0.961526 0.960826 0.960127 0.95943 0.958734 0.958039 0.957345 0.95665 0.955956 0.955261 0.954565 0.953868 0.953169 0.952468 0.951765 0.951059 0.950351 0.949638 0.948922 0.948202 0.947477 0.946747 0.946011 0.945269 0.944521 0.943765 0.943001 0.942229 0.941448 0.940656 0.939853 0.939039 0.938212 0.937371 0.936515 0.935642 0.934751 0.933841 0.932909 0.931953 0.930972 0.929961 0.928919 0.927841 0.926724 0.925562 0.92435 0.923081 0.921747 0.920338 0.918844 0.917248 0.915533 0.913675 0.911649 0.909414 0.906896 0.904044 0.90089 0.897132 0.891996 0.886391 0.882566 0.87316 0.857067 0.857067 
1.05688 1.09276 1.10561 1.08797 1.08782 1.09314 1.09326 1.09205 1.09196 1.09213 1.09204 1.09188 1.09177 1.0917 1.09161 1.09154 1.09145 1.09139 1.09131 1.09126 1.09118 1.09113 1.09106 1.09101 1.09095 1.09091 1.09084 1.09081 1.09074 1.09071 1.09065 1.09062 1.09057 1.09054 1.09049 1.09046 1.09041 1.09038 1.09033 1.0903 1.09026 1.09023 1.09019 1.09016 1.09012 1.09008 1.09005 1.09001 1.08998 1.08994 1.08991 1.08987 1.08984 1.0898 1.08977 1.08973 1.08969 1.08966 1.08962 1.08958 1.08954 1.0895 1.08946 1.08942 1.08938 1.08934 1.08929 1.08925 1.0892 1.08916 1.08911 1.08906 1.089 1.08895 1.08889 1.08883 1.08877 1.08871 1.08864 1.08857 1.0885 1.08842 1.08833 1.08825 1.08815 1.08805 1.08794 1.08782 1.0877 1.08756 1.08742 1.08725 1.08705 1.08679 1.08642 1.08588 1.08507 1.08384 1.08206 1.07955 1.07613 1.07167 1.06607 1.05935 1.05169 1.04345 1.03512 1.02724 1.02028 1.01451 1.00999 1.00665 1.00428 1.00267 1.00162 1.00095 1.00055 1.0003 1.00016 1.00009 1.00004 1.00002 1.00001 1.00001 1 1 1 1 1 1 1 1 1 1 0.999999 0.999998 0.999997 0.999994 0.999989 0.99998 0.999965 0.999941 0.999903 0.999845 0.99976 0.999637 0.999465 0.999233 0.998926 0.998533 0.998043 0.997448 0.996742 0.995927 0.995006 0.993987 0.992885 0.991713 0.99049 0.989235 0.987966 0.9867 0.985451 0.984231 0.983049 0.98191 0.980816 0.979767 0.978762 0.977797 0.976868 0.97597 0.9751 0.974252 0.973425 0.972614 0.971817 0.971033 0.97026 0.969497 0.968743 0.967996 0.967257 0.966524 0.965797 0.965075 0.964358 0.963645 0.962936 0.96223 0.961527 0.960826 0.960127 0.959429 0.958733 0.958038 0.957343 0.956648 0.955953 0.955257 0.954561 0.953863 0.953164 0.952463 0.951759 0.951053 0.950344 0.949631 0.948914 0.948193 0.947468 0.946737 0.946001 0.945258 0.944509 0.943753 0.942988 0.942215 0.941433 0.940641 0.939838 0.939023 0.938195 0.937353 0.936496 0.935623 0.934732 0.933821 0.932888 0.931932 0.93095 0.929939 0.928897 0.927819 0.926703 0.925542 0.924332 0.923065 0.921736 0.920333 0.918846 0.917262 0.915564 0.91373 0.911732 0.909549 0.907147 0.904399 0.901221 0.897893 0.89422 0.888334 0.881406 0.878689 0.875427 0.875427 
1.09643 1.09622 1.08865 1.08872 1.09374 1.09276 1.09155 1.09193 1.09222 1.09204 1.09186 1.0918 1.09173 1.09165 1.09156 1.0915 1.09142 1.09136 1.09128 1.09123 1.09115 1.09111 1.09103 1.09099 1.09092 1.09089 1.09082 1.09079 1.09072 1.09069 1.09063 1.0906 1.09055 1.09052 1.09046 1.09044 1.09039 1.09036 1.09031 1.09028 1.09024 1.09021 1.09017 1.09013 1.09009 1.09006 1.09002 1.08999 1.08995 1.08992 1.08988 1.08985 1.08981 1.08977 1.08974 1.0897 1.08966 1.08962 1.08959 1.08955 1.08951 1.08947 1.08943 1.08938 1.08934 1.0893 1.08925 1.08921 1.08916 1.08911 1.08906 1.089 1.08895 1.08889 1.08883 1.08877 1.08871 1.08864 1.08857 1.0885 1.08842 1.08833 1.08824 1.08815 1.08805 1.08793 1.08782 1.08769 1.08755 1.0874 1.08724 1.08705 1.08682 1.08651 1.0861 1.0855 1.08463 1.08337 1.08158 1.07911 1.07582 1.07156 1.06624 1.05984 1.05249 1.04448 1.03626 1.02837 1.02129 1.01534 1.01064 1.00712 1.0046 1.00289 1.00176 1.00104 1.0006 1.00033 1.00018 1.0001 1.00005 1.00002 1.00001 1.00001 1 1 1 1 1 1 1 1 1 1 0.999999 0.999998 0.999997 0.999993 0.999988 0.999979 0.999963 0.999938 0.999898 0.999837 0.999748 0.999621 0.999444 0.999204 0.99889 0.998489 0.99799 0.997387 0.996675 0.995855 0.994931 0.993912 0.992812 0.991645 0.990429 0.989182 0.987922 0.986666 0.985426 0.984215 0.983041 0.981908 0.98082 0.979776 0.978774 0.97781 0.976882 0.975985 0.975114 0.974267 0.973439 0.972627 0.97183 0.971046 0.970272 0.969509 0.968754 0.968007 0.967268 0.966535 0.965807 0.965085 0.964368 0.963654 0.962945 0.962238 0.961534 0.960833 0.960134 0.959436 0.958739 0.958044 0.957348 0.956653 0.955958 0.955262 0.954565 0.953867 0.953168 0.952466 0.951762 0.951056 0.950346 0.949633 0.948916 0.948195 0.947469 0.946738 0.946002 0.945259 0.94451 0.943753 0.942989 0.942215 0.941433 0.940641 0.939838 0.939023 0.938195 0.937354 0.936498 0.935625 0.934734 0.933824 0.932893 0.931939 0.930959 0.929951 0.928912 0.927838 0.926726 0.925572 0.924369 0.923113 0.921795 0.920408 0.918942 0.917383 0.915719 0.913935 0.912003 0.909891 0.907594 0.905106 0.902239 0.898907 0.895752 0.892516 0.887413 0.883233 0.881213 0.881213 
1.09834 1.0915 1.08953 1.09414 1.09264 1.09093 1.0919 1.09232 1.09197 1.09179 1.0918 1.09176 1.09166 1.09158 1.09151 1.09145 1.09137 1.09132 1.09125 1.0912 1.09112 1.09108 1.09101 1.09097 1.0909 1.09086 1.09079 1.09077 1.0907 1.09067 1.09061 1.09058 1.09052 1.0905 1.09044 1.09042 1.09036 1.09034 1.09029 1.09026 1.09021 1.09019 1.09014 1.09011 1.09007 1.09004 1.09 1.08997 1.08993 1.08989 1.08985 1.08982 1.08978 1.08975 1.08971 1.08967 1.08963 1.08959 1.08955 1.08951 1.08947 1.08943 1.08939 1.08935 1.0893 1.08926 1.08921 1.08916 1.08911 1.08906 1.08901 1.08895 1.0889 1.08884 1.08878 1.08871 1.08865 1.08857 1.0885 1.08842 1.08834 1.08825 1.08816 1.08805 1.08794 1.08783 1.0877 1.08756 1.08742 1.08725 1.08707 1.08685 1.08658 1.08624 1.08578 1.08513 1.08421 1.08291 1.08112 1.07871 1.07553 1.07147 1.06642 1.06033 1.05326 1.04547 1.03736 1.02946 1.02227 1.01616 1.01127 1.00758 1.00492 1.0031 1.00189 1.00112 1.00065 1.00036 1.0002 1.0001 1.00005 1.00003 1.00001 1.00001 1 1 1 1 1 1 1 1 1 1 0.999999 0.999998 0.999996 0.999993 0.999987 0.999977 0.999961 0.999935 0.999893 0.999831 0.999739 0.999608 0.999425 0.99918 0.99886 0.998452 0.997947 0.997337 0.99662 0.995796 0.99487 0.993852 0.992754 0.991591 0.990382 0.989143 0.987892 0.986645 0.985414 0.984211 0.983044 0.981918 0.980834 0.979793 0.978794 0.977832 0.976904 0.976007 0.975137 0.974288 0.97346 0.972648 0.97185 0.971065 0.970291 0.969527 0.968772 0.968025 0.967285 0.966552 0.965824 0.965101 0.964384 0.96367 0.96296 0.962253 0.961549 0.960848 0.960148 0.95945 0.958753 0.958057 0.957362 0.956666 0.955971 0.955275 0.954578 0.953879 0.953179 0.952478 0.951774 0.951067 0.950357 0.949644 0.948927 0.948206 0.94748 0.946749 0.946013 0.94527 0.944521 0.943765 0.943001 0.942228 0.941446 0.940655 0.939852 0.939038 0.938212 0.937372 0.936517 0.935646 0.934757 0.93385 0.932922 0.931971 0.930995 0.929992 0.928958 0.927892 0.926788 0.925644 0.924454 0.923212 0.921913 0.92055 0.919112 0.917591 0.915973 0.914246 0.912399 0.910404 0.908218 0.905869 0.903412 0.900576 0.897253 0.894347 0.891549 0.888358 0.886038 0.886038 
1.08955 1.09202 1.09348 1.09231 1.09099 1.09207 1.09229 1.09178 1.09172 1.09181 1.09175 1.09164 1.09157 1.09152 1.09145 1.0914 1.09133 1.09128 1.09121 1.09116 1.09109 1.09105 1.09098 1.09094 1.09087 1.09084 1.09077 1.09074 1.09067 1.09065 1.09058 1.09056 1.0905 1.09048 1.09042 1.0904 1.09034 1.09032 1.09026 1.09024 1.09019 1.09016 1.09012 1.09009 1.09004 1.09002 1.08997 1.08994 1.0899 1.08987 1.08983 1.08979 1.08975 1.08972 1.08968 1.08964 1.0896 1.08956 1.08952 1.08948 1.08944 1.0894 1.08935 1.08931 1.08926 1.08922 1.08917 1.08912 1.08907 1.08902 1.08896 1.0889 1.08885 1.08878 1.08872 1.08865 1.08858 1.08851 1.08843 1.08835 1.08826 1.08817 1.08807 1.08796 1.08785 1.08772 1.08759 1.08744 1.08728 1.0871 1.08689 1.08665 1.08635 1.08597 1.08546 1.08476 1.0838 1.08248 1.0807 1.07834 1.07529 1.07142 1.06662 1.06081 1.05402 1.04643 1.03843 1.03052 1.02323 1.01695 1.01189 1.00803 1.00524 1.00331 1.00202 1.0012 1.0007 1.00039 1.00021 1.00011 1.00006 1.00003 1.00001 1.00001 1 1 1 1 1 1 1 1 1 1 0.999999 0.999998 0.999996 0.999993 0.999987 0.999977 0.99996 0.999932 0.99989 0.999826 0.999731 0.999597 0.999411 0.999161 0.998836 0.998422 0.997912 0.997298 0.996576 0.99575 0.994823 0.993805 0.99271 0.991552 0.990349 0.989118 0.987875 0.986636 0.985413 0.984218 0.983058 0.981937 0.980857 0.97982 0.978822 0.977862 0.976935 0.976038 0.975167 0.974318 0.973488 0.972676 0.971878 0.971092 0.970318 0.969553 0.968798 0.96805 0.967309 0.966576 0.965847 0.965125 0.964406 0.963693 0.962982 0.962275 0.961571 0.960869 0.960169 0.959471 0.958774 0.958078 0.957382 0.956686 0.955991 0.955294 0.954597 0.953899 0.953199 0.952497 0.951793 0.951086 0.950377 0.949664 0.948947 0.948226 0.9475 0.94677 0.946034 0.945291 0.944543 0.943787 0.943024 0.942252 0.941471 0.94068 0.939879 0.939067 0.938242 0.937404 0.936551 0.935683 0.934798 0.933894 0.93297 0.932024 0.931054 0.930057 0.929032 0.927975 0.926882 0.925751 0.924577 0.923355 0.922079 0.920743 0.91934 0.917862 0.9163 0.914639 0.912871 0.910994 0.908984 0.906785 0.904471 0.902144 0.89951 0.896691 0.894202 0.891738 0.8896 0.8896 
1.09193 1.09221 1.09213 1.09144 1.09202 1.0922 1.09166 1.09167 1.0918 1.09171 1.0916 1.09156 1.09151 1.09146 1.09139 1.09134 1.09128 1.09123 1.09116 1.09112 1.09105 1.09101 1.09094 1.09091 1.09084 1.09081 1.09074 1.09072 1.09065 1.09063 1.09056 1.09054 1.09047 1.09046 1.09039 1.09038 1.09031 1.0903 1.09024 1.09022 1.09016 1.09014 1.09009 1.09007 1.09002 1.08999 1.08995 1.08992 1.08987 1.08984 1.0898 1.08977 1.08973 1.08969 1.08965 1.08961 1.08957 1.08953 1.08949 1.08945 1.0894 1.08936 1.08932 1.08927 1.08922 1.08918 1.08913 1.08908 1.08902 1.08897 1.08891 1.08885 1.08879 1.08873 1.08866 1.08859 1.08852 1.08844 1.08836 1.08828 1.08818 1.08809 1.08798 1.08787 1.08775 1.08761 1.08747 1.08731 1.08713 1.08694 1.08671 1.08644 1.08611 1.08569 1.08514 1.0844 1.0834 1.08207 1.0803 1.07801 1.07508 1.07139 1.06682 1.06128 1.05475 1.04737 1.03947 1.03156 1.02417 1.01774 1.01249 1.00847 1.00554 1.00351 1.00215 1.00128 1.00074 1.00042 1.00023 1.00012 1.00006 1.00003 1.00002 1.00001 1 1 1 1 1 1 1 1 1 0.999999 0.999999 0.999998 0.999996 0.999993 0.999986 0.999976 0.999959 0.999931 0.999887 0.999822 0.999726 0.999589 0.9994 0.999147 0.998818 0.9984 0.997886 0.997268 0.996544 0.995715 0.994788 0.993772 0.99268 0.991527 0.99033 0.989105 0.98787 0.986639 0.985424 0.984236 0.983081 0.981965 0.98089 0.979855 0.978859 0.9779 0.976973 0.976076 0.975204 0.974355 0.973525 0.972711 0.971912 0.971126 0.970351 0.969586 0.96883 0.968082 0.967341 0.966606 0.965878 0.965155 0.964436 0.963722 0.963011 0.962304 0.961599 0.960897 0.960197 0.959499 0.958801 0.958105 0.957409 0.956713 0.956018 0.955321 0.954624 0.953926 0.953226 0.952524 0.95182 0.951113 0.950404 0.949691 0.948975 0.948254 0.947529 0.946799 0.946063 0.945322 0.944574 0.943819 0.943056 0.942286 0.941506 0.940717 0.939918 0.939107 0.938285 0.937449 0.9366 0.935735 0.934853 0.933954 0.933035 0.932095 0.931132 0.930144 0.929128 0.928081 0.927002 0.925886 0.92473 0.923529 0.922279 0.920975 0.91961 0.918177 0.916671 0.915084 0.913403 0.91162 0.909751 0.907774 0.905627 0.903424 0.90124 0.898914 0.896619 0.894497 0.892586 0.892586 
1.09251 1.09181 1.09161 1.09188 1.09202 1.09164 1.09165 1.09178 1.09165 1.09155 1.09154 1.0915 1.09143 1.09138 1.09133 1.09128 1.09122 1.09118 1.09112 1.09108 1.09101 1.09098 1.09091 1.09088 1.09081 1.09078 1.09071 1.09069 1.09062 1.0906 1.09053 1.09052 1.09045 1.09043 1.09037 1.09035 1.09029 1.09027 1.09021 1.09019 1.09014 1.09012 1.09007 1.09004 1.08999 1.08997 1.08992 1.08989 1.08985 1.08981 1.08977 1.08974 1.0897 1.08966 1.08962 1.08958 1.08954 1.0895 1.08946 1.08941 1.08937 1.08933 1.08928 1.08923 1.08919 1.08914 1.08909 1.08903 1.08898 1.08892 1.08887 1.0888 1.08874 1.08868 1.08861 1.08853 1.08846 1.08838 1.08829 1.0882 1.08811 1.088 1.08789 1.08777 1.08764 1.0875 1.08735 1.08718 1.08699 1.08678 1.08653 1.08624 1.08588 1.08542 1.08483 1.08406 1.08303 1.08169 1.07994 1.07771 1.0749 1.07138 1.06704 1.06175 1.05547 1.04828 1.04048 1.03257 1.02509 1.0185 1.01309 1.0089 1.00584 1.00371 1.00228 1.00136 1.00079 1.00044 1.00024 1.00013 1.00007 1.00003 1.00002 1.00001 1 1 1 1 1 1 1 1 1 0.999999 0.999999 0.999998 0.999996 0.999992 0.999986 0.999976 0.999958 0.99993 0.999886 0.999819 0.999722 0.999584 0.999393 0.999138 0.998806 0.998386 0.997868 0.997248 0.996523 0.995694 0.994767 0.993753 0.992664 0.991516 0.990324 0.989106 0.987878 0.986654 0.985446 0.984264 0.983114 0.982003 0.980931 0.979898 0.978904 0.977946 0.977019 0.976122 0.97525 0.9744 0.973569 0.972754 0.971955 0.971168 0.970392 0.969626 0.968869 0.968121 0.967379 0.966644 0.965915 0.965192 0.964473 0.963758 0.963047 0.96234 0.961635 0.960932 0.960232 0.959533 0.958836 0.958139 0.957443 0.956747 0.956051 0.955355 0.954658 0.953959 0.95326 0.952558 0.951854 0.951148 0.950438 0.949726 0.94901 0.94829 0.947565 0.946835 0.946101 0.94536 0.944613 0.943859 0.943098 0.942329 0.941551 0.940764 0.939966 0.939158 0.938338 0.937506 0.93666 0.935799 0.934922 0.934028 0.933115 0.932182 0.931226 0.930247 0.929241 0.928207 0.927142 0.926043 0.924906 0.923728 0.922505 0.921233 0.919907 0.918522 0.917071 0.915551 0.913959 0.912281 0.910515 0.908691 0.906786 0.904771 0.90275 0.900739 0.898711 0.896781 0.895043 0.895043 
1.09158 1.09174 1.0918 1.0918 1.09164 1.09162 1.09171 1.0916 1.09151 1.09151 1.09147 1.09141 1.09136 1.09132 1.09127 1.09122 1.09117 1.09113 1.09107 1.09103 1.09097 1.09094 1.09087 1.09084 1.09077 1.09075 1.09068 1.09066 1.09059 1.09057 1.0905 1.09049 1.09042 1.09041 1.09034 1.09033 1.09026 1.09025 1.09019 1.09017 1.09011 1.09009 1.09004 1.09002 1.08997 1.08994 1.08989 1.08986 1.08982 1.08979 1.08974 1.08971 1.08967 1.08963 1.08959 1.08955 1.08951 1.08947 1.08942 1.08938 1.08933 1.08929 1.08924 1.0892 1.08915 1.0891 1.08904 1.08899 1.08893 1.08888 1.08882 1.08875 1.08869 1.08862 1.08855 1.08847 1.08839 1.08831 1.08822 1.08813 1.08803 1.08792 1.0878 1.08768 1.08754 1.08739 1.08723 1.08705 1.08684 1.08661 1.08635 1.08603 1.08564 1.08516 1.08453 1.08373 1.08268 1.08133 1.07961 1.07745 1.07475 1.0714 1.06727 1.06222 1.05617 1.04916 1.04147 1.03356 1.02599 1.01925 1.01367 1.00933 1.00614 1.0039 1.0024 1.00144 1.00083 1.00047 1.00026 1.00014 1.00007 1.00004 1.00002 1.00001 1 1 1 1 1 1 1 1 1 0.999999 0.999999 0.999998 0.999996 0.999992 0.999986 0.999975 0.999958 0.999929 0.999885 0.999818 0.99972 0.999581 0.999389 0.999133 0.998799 0.998378 0.99786 0.997238 0.996512 0.995684 0.994759 0.993747 0.992662 0.991518 0.990332 0.989121 0.987899 0.986681 0.985479 0.984302 0.983158 0.98205 0.980981 0.979951 0.978958 0.977999 0.977073 0.976175 0.975303 0.974452 0.97362 0.972805 0.972004 0.971216 0.97044 0.969673 0.968916 0.968167 0.967425 0.966689 0.96596 0.965236 0.964516 0.963801 0.96309 0.962382 0.961677 0.960974 0.960273 0.959574 0.958877 0.95818 0.957484 0.956788 0.956092 0.955395 0.954698 0.954 0.9533 0.952599 0.951895 0.951189 0.95048 0.949768 0.949052 0.948333 0.947609 0.94688 0.946146 0.945406 0.94466 0.943908 0.943148 0.94238 0.941604 0.940819 0.940024 0.939219 0.938402 0.937573 0.93673 0.935874 0.935002 0.934113 0.933207 0.932281 0.931334 0.930364 0.92937 0.928349 0.927298 0.926216 0.9251 0.923945 0.92275 0.921511 0.920223 0.918884 0.917489 0.916032 0.914515 0.912937 0.911286 0.909568 0.907813 0.906005 0.904152 0.902318 0.900508 0.898746 0.897133 0.897133 
1.0916 1.09166 1.09165 1.0916 1.09157 1.09161 1.09155 1.09148 1.09147 1.09144 1.09137 1.09134 1.09129 1.09125 1.0912 1.09116 1.09111 1.09108 1.09102 1.09099 1.09092 1.09089 1.09083 1.0908 1.09073 1.09072 1.09064 1.09063 1.09056 1.09054 1.09047 1.09046 1.09039 1.09038 1.09031 1.0903 1.09023 1.09022 1.09016 1.09014 1.09009 1.09007 1.09001 1.08999 1.08994 1.08991 1.08987 1.08984 1.08979 1.08976 1.08971 1.08968 1.08964 1.0896 1.08956 1.08952 1.08947 1.08943 1.08939 1.08934 1.0893 1.08925 1.08921 1.08916 1.08911 1.08905 1.089 1.08895 1.08889 1.08883 1.08877 1.0887 1.08863 1.08856 1.08849 1.08841 1.08833 1.08824 1.08815 1.08805 1.08794 1.08783 1.08771 1.08758 1.08743 1.08728 1.0871 1.08691 1.0867 1.08645 1.08616 1.08582 1.08541 1.0849 1.08424 1.08341 1.08235 1.081 1.07931 1.07721 1.07462 1.07144 1.06751 1.06269 1.05685 1.05003 1.04243 1.03452 1.02687 1.01999 1.01424 1.00975 1.00643 1.00409 1.00252 1.00151 1.00088 1.00049 1.00027 1.00014 1.00007 1.00004 1.00002 1.00001 1 1 1 1 1 1 1 1 1 0.999999 0.999999 0.999998 0.999996 0.999992 0.999986 0.999976 0.999958 0.999929 0.999885 0.999818 0.99972 0.999581 0.999389 0.999133 0.998799 0.998377 0.997859 0.997238 0.996513 0.995686 0.994763 0.993754 0.992673 0.991534 0.990354 0.989148 0.987932 0.98672 0.985523 0.984351 0.983211 0.982107 0.98104 0.980011 0.979019 0.978061 0.977135 0.976237 0.975363 0.974511 0.973679 0.972863 0.972061 0.971272 0.970495 0.969728 0.96897 0.96822 0.967477 0.966741 0.966011 0.965286 0.964567 0.963851 0.963139 0.962431 0.961725 0.961022 0.960321 0.959622 0.958924 0.958227 0.957531 0.956835 0.956139 0.955443 0.954746 0.954047 0.953348 0.952646 0.951943 0.951237 0.950529 0.949817 0.949102 0.948383 0.94766 0.946932 0.946199 0.94546 0.944715 0.943964 0.943206 0.94244 0.941666 0.940883 0.940091 0.939288 0.938475 0.937649 0.936811 0.935959 0.935092 0.93421 0.93331 0.932392 0.931454 0.930494 0.929511 0.928503 0.927468 0.926403 0.925307 0.924176 0.923009 0.921801 0.920551 0.919256 0.917912 0.916518 0.91507 0.913572 0.912025 0.910422 0.908778 0.907112 0.90542 0.903725 0.90206 0.900438 0.89893 0.89893 
1.0916 1.09153 1.09151 1.09151 1.09151 1.09148 1.09143 1.09143 1.09139 1.09134 1.0913 1.09127 1.09123 1.09119 1.09114 1.09111 1.09106 1.09102 1.09097 1.09094 1.09088 1.09085 1.09079 1.09077 1.0907 1.09068 1.09061 1.0906 1.09052 1.09051 1.09044 1.09043 1.09036 1.09035 1.09028 1.09027 1.09021 1.09019 1.09013 1.09012 1.09006 1.09004 1.08998 1.08996 1.08991 1.08988 1.08984 1.08981 1.08976 1.08973 1.08968 1.08965 1.08961 1.08957 1.08952 1.08948 1.08944 1.0894 1.08935 1.08931 1.08926 1.08922 1.08917 1.08912 1.08906 1.08901 1.08896 1.0889 1.08884 1.08878 1.08872 1.08865 1.08858 1.08851 1.08843 1.08835 1.08826 1.08817 1.08808 1.08797 1.08786 1.08774 1.08762 1.08748 1.08733 1.08716 1.08698 1.08678 1.08655 1.08629 1.08598 1.08562 1.08518 1.08464 1.08396 1.0831 1.08203 1.08069 1.07903 1.077 1.07452 1.07149 1.06776 1.06315 1.05753 1.05087 1.04337 1.03547 1.02773 1.02071 1.01481 1.01016 1.00671 1.00428 1.00264 1.00158 1.00092 1.00052 1.00028 1.00015 1.00008 1.00004 1.00002 1.00001 1 1 1 1 1 1 1 1 1 1 0.999999 0.999998 0.999996 0.999993 0.999986 0.999976 0.999958 0.99993 0.999886 0.99982 0.999722 0.999584 0.999392 0.999137 0.998804 0.998384 0.997867 0.997248 0.996525 0.9957 0.99478 0.993775 0.992698 0.991564 0.990388 0.989188 0.987977 0.986771 0.985579 0.984411 0.983275 0.982173 0.981108 0.980081 0.979089 0.978131 0.977205 0.976306 0.975431 0.974578 0.973745 0.972928 0.972125 0.971335 0.970557 0.969789 0.96903 0.96828 0.967536 0.9668 0.966069 0.965344 0.964624 0.963908 0.963195 0.962487 0.961781 0.961077 0.960376 0.959677 0.958979 0.958282 0.957585 0.956889 0.956193 0.955497 0.9548 0.954101 0.953402 0.952701 0.951998 0.951292 0.950584 0.949873 0.949159 0.94844 0.947718 0.946991 0.946259 0.945521 0.944778 0.944028 0.943272 0.942508 0.941736 0.940955 0.940166 0.939366 0.938556 0.937734 0.9369 0.936053 0.935192 0.934316 0.933423 0.932513 0.931583 0.930634 0.929663 0.928668 0.927648 0.926601 0.925525 0.924417 0.923277 0.9221 0.920886 0.919632 0.918337 0.916999 0.915617 0.91419 0.912724 0.911222 0.909683 0.908123 0.906555 0.904984 0.903432 0.901919 0.900497 0.900497 
1.09143 1.09143 1.09143 1.09142 1.09141 1.09138 1.09136 1.09134 1.0913 1.09127 1.09124 1.0912 1.09116 1.09113 1.09108 1.09105 1.091 1.09097 1.09092 1.09089 1.09083 1.09081 1.09075 1.09072 1.09066 1.09064 1.09057 1.09056 1.09049 1.09048 1.09041 1.0904 1.09033 1.09032 1.09025 1.09024 1.09018 1.09017 1.0901 1.09009 1.09003 1.09001 1.08996 1.08993 1.08988 1.08986 1.08981 1.08978 1.08973 1.0897 1.08965 1.08962 1.08957 1.08954 1.08949 1.08945 1.08941 1.08936 1.08932 1.08927 1.08922 1.08918 1.08913 1.08908 1.08902 1.08897 1.08891 1.08885 1.08879 1.08873 1.08866 1.08859 1.08852 1.08845 1.08837 1.08828 1.0882 1.0881 1.088 1.08789 1.08778 1.08766 1.08752 1.08738 1.08722 1.08705 1.08685 1.08664 1.0864 1.08612 1.0858 1.08542 1.08496 1.08439 1.08369 1.08281 1.08173 1.0804 1.07877 1.07681 1.07445 1.07157 1.06802 1.06362 1.05819 1.0517 1.04429 1.03639 1.02857 1.02142 1.01535 1.01056 1.00698 1.00446 1.00275 1.00165 1.00096 1.00054 1.0003 1.00016 1.00008 1.00004 1.00002 1.00001 1 1 1 1 1 1 1 1 1 1 0.999999 0.999998 0.999996 0.999993 0.999987 0.999976 0.999959 0.999931 0.999888 0.999822 0.999726 0.999588 0.999399 0.999145 0.998814 0.998396 0.997882 0.997266 0.996546 0.995725 0.99481 0.993809 0.992736 0.991607 0.990437 0.989241 0.988036 0.986834 0.985646 0.984482 0.983348 0.982249 0.981186 0.980159 0.979168 0.97821 0.977282 0.976382 0.975507 0.974653 0.973818 0.973 0.972196 0.971406 0.970627 0.969858 0.969098 0.968346 0.967602 0.966865 0.966134 0.965408 0.964687 0.963971 0.963258 0.962549 0.961843 0.961139 0.960438 0.959738 0.95904 0.958342 0.957646 0.95695 0.956254 0.955557 0.95486 0.954162 0.953463 0.952762 0.952059 0.951354 0.950647 0.949936 0.949222 0.948505 0.947783 0.947057 0.946326 0.94559 0.944848 0.9441 0.943345 0.942583 0.941813 0.941035 0.940249 0.939452 0.938645 0.937828 0.936998 0.936156 0.935301 0.93443 0.933545 0.932643 0.931723 0.930783 0.929824 0.928843 0.927838 0.926808 0.925751 0.924667 0.923552 0.922405 0.921225 0.92001 0.918759 0.917471 0.916148 0.914788 0.913394 0.911971 0.910524 0.909057 0.907583 0.906112 0.904655 0.903229 0.901879 0.901879 
1.09134 1.09134 1.09134 1.09133 1.09132 1.0913 1.09128 1.09125 1.09123 1.0912 1.09116 1.09113 1.0911 1.09106 1.09102 1.09099 1.09095 1.09092 1.09087 1.09084 1.09079 1.09076 1.0907 1.09068 1.09062 1.0906 1.09054 1.09053 1.09045 1.09045 1.09037 1.09037 1.0903 1.09029 1.09022 1.09021 1.09015 1.09014 1.09007 1.09006 1.09 1.08998 1.08993 1.0899 1.08985 1.08983 1.08978 1.08975 1.0897 1.08967 1.08962 1.08959 1.08954 1.0895 1.08946 1.08942 1.08937 1.08933 1.08928 1.08923 1.08919 1.08914 1.08909 1.08903 1.08898 1.08892 1.08887 1.08881 1.08874 1.08868 1.08861 1.08854 1.08847 1.08839 1.08831 1.08822 1.08813 1.08803 1.08793 1.08781 1.0877 1.08757 1.08743 1.08728 1.08711 1.08693 1.08673 1.0865 1.08625 1.08596 1.08562 1.08522 1.08473 1.08414 1.08342 1.08253 1.08144 1.08012 1.07854 1.07665 1.07439 1.07165 1.06828 1.06408 1.05885 1.05251 1.04519 1.03729 1.02939 1.02211 1.01589 1.01095 1.00725 1.00463 1.00286 1.00171 1.001 1.00056 1.00031 1.00016 1.00009 1.00004 1.00002 1.00001 1 1 1 1 1 1 1 1 1 1 0.999999 0.999998 0.999996 0.999993 0.999987 0.999977 0.99996 0.999933 0.99989 0.999826 0.999731 0.999595 0.999408 0.999157 0.99883 0.998415 0.997905 0.997294 0.996579 0.995762 0.994851 0.993856 0.992788 0.991664 0.990498 0.989308 0.988107 0.986909 0.985725 0.984564 0.983432 0.982335 0.981272 0.980246 0.979255 0.978296 0.977368 0.976467 0.975591 0.974736 0.9739 0.97308 0.972275 0.971484 0.970703 0.969933 0.969173 0.96842 0.967676 0.966938 0.966206 0.965479 0.964758 0.964041 0.963328 0.962618 0.961912 0.961208 0.960506 0.959806 0.959107 0.95841 0.957713 0.957017 0.956321 0.955625 0.954928 0.95423 0.953531 0.95283 0.952128 0.951423 0.950716 0.950006 0.949293 0.948576 0.947855 0.94713 0.9464 0.945665 0.944925 0.944179 0.943426 0.942666 0.941898 0.941123 0.940339 0.939546 0.938743 0.937929 0.937104 0.936267 0.935417 0.934554 0.933675 0.932781 0.93187 0.930941 0.929994 0.929025 0.928035 0.927022 0.925985 0.924922 0.923832 0.922713 0.921565 0.920386 0.919176 0.917935 0.916663 0.915361 0.914032 0.912677 0.911304 0.909917 0.908523 0.907133 0.905754 0.904401 0.903109 0.903109 