# vtk DataFile Version 3.0
LBM simulation at step 300
ASCII
DATASET STRUCTURED_POINTS
DIMENSIONS 128 128 1
ORIGIN 0 0 0
SPACING 1 1 1
POINT_DATA 16384
SCALARS density float
LOOKUP_TABLE default
0.944009 1.00874 1.01046 1.00717 1.00737 1.00752 1.00735 1.00721 1.00712 1.00704 1.00697 1.0069 1.00685 1.0068 1.00676 1.00672 1.00669 1.00667 1.00664 1.0066 1.00656 1.00651 1.00644 1.00635 1.00624 1.0061 1.00593 1.00574 1.00551 1.00524 1.00495 1.00462 1.00425 1.00385 1.00341 1.00294 1.00244 1.0019 1.00132 1.00071 1.00007 0.999392 0.998682 0.99794 0.997167 0.996364 0.995533 0.994676 0.993796 0.992894 0.991974 0.991039 0.99009 0.989132 0.988167 0.987199 0.986229 0.985262 0.984299 0.983342 0.982394 0.981456 0.980529 0.979615 0.978713 0.977823 0.976946 0.976081 0.975226 0.97438 0.973542 0.972709 0.971879 0.97105 0.970218 0.969379 0.968532 0.967671 0.966793 0.965894 0.964973 0.964026 0.963051 0.962048 0.961016 0.959955 0.958865 0.95775 0.95661 0.955449 0.954271 0.953079 0.951879 0.950678 0.94948 0.948293 0.947124 0.945978 0.94486 0.943774 0.942722 0.941705 0.940722 0.939772 0.93885 0.937954 0.93708 0.936223 0.93538 0.934546 0.93372 0.932898 0.932077 0.931255 0.930431 0.929602 0.928765 0.927918 0.927056 0.926178 0.925263 0.924292 0.9233 0.92258 0.920443 0.918646 0.934162 0.934162 
1.01127 1.00934 1.00555 1.00679 1.00761 1.00751 1.00733 1.00722 1.00712 1.00704 1.00697 1.0069 1.00685 1.0068 1.00675 1.00672 1.00668 1.00665 1.00662 1.00658 1.00653 1.00647 1.00639 1.0063 1.00618 1.00603 1.00586 1.00566 1.00543 1.00516 1.00486 1.00452 1.00416 1.00375 1.00332 1.00285 1.00234 1.0018 1.00123 1.00062 0.99998 0.999306 0.998599 0.997859 0.99709 0.996291 0.995464 0.994611 0.993735 0.992838 0.991922 0.990991 0.990047 0.989093 0.988132 0.987167 0.986201 0.985236 0.984276 0.983322 0.982376 0.981441 0.980516 0.979603 0.978703 0.977815 0.976938 0.976074 0.975219 0.974373 0.973535 0.972701 0.971871 0.97104 0.970206 0.969365 0.968514 0.96765 0.966769 0.965868 0.964944 0.963995 0.963019 0.962016 0.960986 0.959928 0.958844 0.957735 0.956603 0.955451 0.954282 0.9531 0.95191 0.950716 0.949525 0.948344 0.947178 0.946033 0.944915 0.943827 0.942772 0.941751 0.940763 0.939807 0.93888 0.937979 0.937099 0.936237 0.935389 0.934551 0.933719 0.932892 0.932066 0.931238 0.930407 0.929569 0.928722 0.927863 0.926987 0.926094 0.925172 0.924166 0.922991 0.921998 0.922182 0.922701 0.92027 0.92027 
1.01855 1.0062 1.00558 1.00807 1.00767 1.00724 1.00723 1.00721 1.00713 1.00704 1.00697 1.00691 1.00685 1.0068 1.00676 1.00672 1.00668 1.00664 1.0066 1.00656 1.0065 1.00643 1.00634 1.00624 1.00611 1.00596 1.00578 1.00558 1.00534 1.00507 1.00476 1.00443 1.00406 1.00366 1.00322 1.00275 1.00225 1.00171 1.00114 1.00054 0.999898 0.999227 0.998524 0.99779 0.997025 0.99623 0.995408 0.99456 0.993689 0.992796 0.991885 0.990958 0.990018 0.989068 0.988111 0.987149 0.986186 0.985225 0.984267 0.983315 0.982371 0.981437 0.980513 0.979601 0.978701 0.977814 0.976937 0.976072 0.975217 0.97437 0.973531 0.972696 0.971863 0.97103 0.970192 0.969348 0.968494 0.967626 0.96674 0.965835 0.964907 0.963954 0.962976 0.961972 0.960941 0.959885 0.958805 0.957702 0.956577 0.955434 0.954275 0.953103 0.951922 0.950739 0.949557 0.948383 0.947222 0.946082 0.944966 0.943879 0.942823 0.9418 0.940809 0.93985 0.93892 0.938016 0.937133 0.936268 0.935418 0.934578 0.933744 0.932914 0.932085 0.931254 0.930418 0.929575 0.928723 0.927858 0.926974 0.926053 0.925101 0.924171 0.923241 0.922064 0.921137 0.91897 0.912403 0.912403 
1.00343 1.00775 1.00975 1.00745 1.0068 1.00728 1.00734 1.00717 1.00708 1.00703 1.00697 1.00692 1.00686 1.00682 1.00677 1.00673 1.00669 1.00664 1.0066 1.00654 1.00647 1.00639 1.0063 1.00618 1.00604 1.00588 1.0057 1.00548 1.00524 1.00497 1.00466 1.00432 1.00396 1.00355 1.00312 1.00265 1.00215 1.00162 1.00105 1.00046 0.999823 0.999158 0.99846 0.997731 0.996971 0.996181 0.995364 0.994522 0.993655 0.992767 0.991861 0.990938 0.990002 0.989056 0.988103 0.987145 0.986185 0.985226 0.984271 0.983321 0.982378 0.981444 0.980521 0.979609 0.978709 0.97782 0.976943 0.976076 0.975219 0.974371 0.973529 0.972692 0.971856 0.971019 0.970179 0.969331 0.968472 0.967599 0.966709 0.965798 0.964865 0.963908 0.962926 0.961919 0.960886 0.95983 0.958751 0.957652 0.956533 0.955397 0.954247 0.953085 0.951916 0.950743 0.949572 0.948407 0.947256 0.946122 0.945011 0.943928 0.942874 0.941852 0.940862 0.939902 0.938972 0.938067 0.937184 0.936319 0.935469 0.934629 0.933796 0.932967 0.932138 0.931306 0.93047 0.929626 0.928771 0.9279 0.927015 0.926111 0.925162 0.924143 0.923182 0.922212 0.92086 0.918583 0.914372 0.914372 
1.0075 1.00821 1.00733 1.0069 1.00746 1.00736 1.00712 1.00708 1.00708 1.00703 1.00697 1.00692 1.00688 1.00684 1.00679 1.00675 1.0067 1.00665 1.00659 1.00652 1.00644 1.00635 1.00624 1.00612 1.00597 1.0058 1.0056 1.00538 1.00513 1.00486 1.00455 1.00421 1.00385 1.00345 1.00302 1.00255 1.00206 1.00153 1.00097 1.00038 0.999754 0.999095 0.998404 0.99768 0.996927 0.996143 0.995332 0.994494 0.993633 0.99275 0.991848 0.99093 0.989999 0.989057 0.988107 0.987152 0.986195 0.985239 0.984285 0.983336 0.982395 0.981461 0.980538 0.979625 0.978723 0.977833 0.976953 0.976084 0.975225 0.974374 0.973529 0.972688 0.971849 0.971009 0.970164 0.969311 0.968448 0.967569 0.966673 0.965757 0.964818 0.963854 0.962867 0.961855 0.960819 0.959761 0.958683 0.957585 0.956471 0.955342 0.954201 0.95305 0.951892 0.950732 0.949573 0.948421 0.94728 0.946156 0.945054 0.943977 0.942928 0.94191 0.940923 0.939965 0.939037 0.938134 0.937253 0.936391 0.935543 0.934706 0.933876 0.93305 0.932225 0.931396 0.930563 0.929722 0.928871 0.928004 0.927116 0.926208 0.925288 0.924325 0.923298 0.922157 0.92051 0.91906 0.917903 0.917903 
1.00828 1.00726 1.00685 1.00749 1.00736 1.00703 1.00706 1.0071 1.00704 1.00699 1.00696 1.00693 1.0069 1.00686 1.00682 1.00677 1.00672 1.00666 1.00659 1.00651 1.00642 1.00631 1.00619 1.00605 1.00589 1.00571 1.0055 1.00527 1.00502 1.00474 1.00443 1.0041 1.00373 1.00333 1.00291 1.00245 1.00196 1.00144 1.00089 1.00031 0.999687 0.999036 0.998352 0.997636 0.996889 0.996112 0.995307 0.994476 0.99362 0.992743 0.991846 0.990932 0.990005 0.989067 0.988121 0.987169 0.986215 0.985261 0.984308 0.98336 0.982419 0.981485 0.98056 0.979646 0.978742 0.977849 0.976967 0.976095 0.975232 0.974377 0.973528 0.972683 0.97184 0.970995 0.970145 0.969287 0.968418 0.967533 0.966631 0.965707 0.964761 0.963791 0.962797 0.961779 0.96074 0.959679 0.9586 0.957504 0.956394 0.955272 0.95414 0.953 0.951855 0.950709 0.949565 0.948427 0.9473 0.946188 0.945096 0.944029 0.942988 0.941976 0.940994 0.940041 0.939117 0.938218 0.937341 0.936484 0.935641 0.93481 0.933986 0.933166 0.932346 0.931525 0.930698 0.929863 0.929017 0.92816 0.927287 0.926389 0.925466 0.924524 0.923513 0.92245 0.921167 0.919952 0.919231 0.919231 
1.00669 1.00706 1.00728 1.00717 1.00694 1.00704 1.00708 1.00701 1.00698 1.00698 1.00696 1.00694 1.00691 1.00688 1.00684 1.00679 1.00673 1.00666 1.00658 1.00649 1.00639 1.00626 1.00613 1.00597 1.0058 1.00561 1.00539 1.00516 1.0049 1.00461 1.0043 1.00397 1.00361 1.00321 1.00279 1.00234 1.00186 1.00135 1.00081 1.00023 0.999621 0.998978 0.998303 0.997595 0.996856 0.996086 0.995289 0.994463 0.993614 0.992742 0.99185 0.990942 0.990019 0.989084 0.988142 0.987193 0.986241 0.985288 0.984337 0.983389 0.982447 0.981512 0.980586 0.979669 0.978762 0.977866 0.97698 0.976104 0.975237 0.974377 0.973524 0.972674 0.971826 0.970976 0.97012 0.969257 0.968381 0.967489 0.96658 0.965649 0.964695 0.963717 0.962716 0.961692 0.960648 0.959584 0.958504 0.95741 0.956304 0.955189 0.954067 0.95294 0.951809 0.950679 0.949551 0.948429 0.947318 0.946221 0.945143 0.944086 0.943055 0.942052 0.941078 0.940132 0.939213 0.938321 0.937451 0.9366 0.935765 0.934941 0.934125 0.933313 0.932502 0.931689 0.930872 0.930047 0.929213 0.928366 0.927506 0.926631 0.925733 0.924811 0.923824 0.922806 0.921854 0.920852 0.919977 0.919977 
1.00672 1.00691 1.00696 1.00686 1.00693 1.00699 1.00693 1.00693 1.00696 1.00696 1.00694 1.00694 1.00692 1.00689 1.00685 1.0068 1.00674 1.00667 1.00658 1.00647 1.00635 1.00621 1.00606 1.00589 1.00571 1.0055 1.00528 1.00503 1.00477 1.00448 1.00417 1.00383 1.00347 1.00309 1.00267 1.00223 1.00176 1.00125 1.00072 1.00015 0.999552 0.998918 0.998253 0.997554 0.996824 0.996062 0.995272 0.994454 0.993611 0.992745 0.991858 0.990954 0.990036 0.989105 0.988166 0.987219 0.986269 0.985317 0.984367 0.983419 0.982476 0.981539 0.98061 0.97969 0.97878 0.97788 0.97699 0.976109 0.975237 0.974372 0.973514 0.972659 0.971805 0.970949 0.970087 0.969217 0.968335 0.967436 0.966519 0.96558 0.964618 0.963633 0.962624 0.961594 0.960544 0.959477 0.958396 0.957304 0.956204 0.955097 0.953985 0.952872 0.951757 0.950644 0.949534 0.948431 0.947337 0.946257 0.945194 0.944152 0.943133 0.942141 0.941176 0.940238 0.939328 0.938443 0.937581 0.936739 0.935913 0.935098 0.934292 0.933491 0.932691 0.93189 0.931084 0.930271 0.929451 0.92862 0.927777 0.926921 0.926048 0.92516 0.924255 0.923317 0.922434 0.921575 0.920728 0.920728 
1.0067 1.0067 1.0067 1.00677 1.00684 1.00682 1.00684 1.00689 1.00691 1.00691 1.00693 1.00693 1.00692 1.0069 1.00687 1.00681 1.00675 1.00666 1.00656 1.00644 1.00631 1.00616 1.00599 1.00581 1.00561 1.00539 1.00515 1.0049 1.00463 1.00434 1.00402 1.00369 1.00333 1.00295 1.00254 1.00211 1.00164 1.00115 1.00062 1.00007 0.999477 0.998854 0.998199 0.99751 0.996789 0.996037 0.995255 0.994444 0.993608 0.992748 0.991867 0.990968 0.990054 0.989127 0.98819 0.987246 0.986297 0.985346 0.984395 0.983446 0.982501 0.981562 0.980631 0.979707 0.978792 0.977888 0.976992 0.976106 0.975229 0.974359 0.973495 0.972634 0.971774 0.970912 0.970044 0.969168 0.968278 0.967372 0.966447 0.9655 0.96453 0.963537 0.962521 0.961484 0.96043 0.95936 0.958279 0.95719 0.956095 0.954997 0.953898 0.952799 0.951701 0.950607 0.949517 0.948435 0.947361 0.9463 0.945255 0.944228 0.943224 0.942244 0.94129 0.940362 0.939462 0.938586 0.937734 0.936901 0.936085 0.935282 0.934487 0.933698 0.932911 0.932122 0.93133 0.930533 0.929727 0.928914 0.928091 0.927259 0.926414 0.925555 0.924703 0.92385 0.922999 0.92221 0.921461 0.921461 
1.0064 1.00654 1.0066 1.00665 1.00667 1.00671 1.00678 1.00681 1.00685 1.00688 1.00691 1.00692 1.00692 1.0069 1.00687 1.00682 1.00674 1.00665 1.00654 1.00641 1.00626 1.0061 1.00591 1.00572 1.0055 1.00527 1.00502 1.00476 1.00448 1.00419 1.00387 1.00354 1.00318 1.0028 1.0024 1.00197 1.00152 1.00103 1.00052 0.999973 0.999396 0.998784 0.99814 0.997461 0.996751 0.996008 0.995234 0.994432 0.993603 0.992749 0.991874 0.99098 0.99007 0.989146 0.988211 0.987269 0.986321 0.98537 0.984418 0.983468 0.982521 0.981579 0.980643 0.979716 0.978796 0.977886 0.976986 0.976094 0.975211 0.974335 0.973465 0.972598 0.971732 0.970864 0.96999 0.969106 0.968209 0.967296 0.966363 0.965408 0.96443 0.963429 0.962406 0.961364 0.960305 0.959234 0.958153 0.957068 0.95598 0.954892 0.953806 0.952724 0.951645 0.950572 0.949504 0.948443 0.947391 0.946351 0.945325 0.944316 0.943328 0.942362 0.94142 0.940505 0.939615 0.93875 0.937908 0.937086 0.936281 0.93549 0.934708 0.933932 0.933159 0.932385 0.931608 0.930826 0.930038 0.929243 0.928441 0.92763 0.926816 0.925995 0.925174 0.92437 0.923571 0.92281 0.922103 0.922103 
1.00626 1.00641 1.00646 1.00651 1.00657 1.00663 1.00669 1.00674 1.0068 1.00685 1.00688 1.0069 1.00691 1.00689 1.00686 1.00681 1.00673 1.00663 1.00651 1.00637 1.00621 1.00603 1.00583 1.00562 1.00539 1.00515 1.00489 1.00462 1.00433 1.00403 1.00372 1.00338 1.00303 1.00265 1.00225 1.00183 1.00139 1.00091 1.00041 0.999872 0.999306 0.998705 0.998073 0.997405 0.996706 0.995972 0.995208 0.994414 0.993593 0.992746 0.991877 0.990987 0.990081 0.98916 0.988228 0.987286 0.986339 0.985387 0.984434 0.983482 0.982532 0.981586 0.980647 0.979714 0.97879 0.977874 0.976968 0.97607 0.975181 0.974299 0.973423 0.97255 0.971678 0.970803 0.969922 0.969032 0.968128 0.967207 0.966267 0.965304 0.964319 0.96331 0.962281 0.961234 0.960172 0.9591 0.958021 0.956941 0.955861 0.954785 0.953715 0.95265 0.951592 0.950541 0.949496 0.948459 0.947431 0.946413 0.945408 0.944418 0.943447 0.942496 0.941569 0.940666 0.939788 0.938934 0.938103 0.937293 0.9365 0.935721 0.934953 0.934191 0.933433 0.932674 0.931913 0.931149 0.930378 0.929602 0.928821 0.928033 0.927242 0.926453 0.925663 0.924886 0.924128 0.923391 0.922693 0.922693 
1.00616 1.0063 1.00635 1.00641 1.00648 1.00655 1.00662 1.00669 1.00675 1.0068 1.00685 1.00688 1.00689 1.00688 1.00685 1.00679 1.00671 1.0066 1.00647 1.00632 1.00615 1.00596 1.00575 1.00552 1.00528 1.00503 1.00476 1.00448 1.00418 1.00388 1.00355 1.00322 1.00286 1.00249 1.0021 1.00168 1.00124 1.00078 1.00029 0.999761 0.999207 0.998618 0.997997 0.997342 0.996653 0.99593 0.995176 0.994391 0.993578 0.992737 0.991874 0.990989 0.990086 0.989168 0.988237 0.987297 0.986349 0.985396 0.984441 0.983486 0.982533 0.981583 0.980639 0.979701 0.978771 0.97785 0.976937 0.976034 0.975138 0.97425 0.973368 0.972489 0.97161 0.970729 0.969842 0.968945 0.968034 0.967106 0.966158 0.965188 0.964196 0.963181 0.962147 0.961095 0.960032 0.95896 0.957885 0.956811 0.955742 0.954679 0.953625 0.95258 0.951544 0.950517 0.949497 0.948485 0.947481 0.946487 0.945504 0.944535 0.943582 0.942648 0.941736 0.940846 0.939981 0.939139 0.93832 0.937521 0.936741 0.935975 0.93522 0.934473 0.93373 0.932987 0.932243 0.931496 0.930744 0.929987 0.929225 0.928459 0.927691 0.926925 0.926163 0.925409 0.924673 0.923956 0.923264 0.923264 
1.00606 1.00622 1.00627 1.00633 1.0064 1.00648 1.00656 1.00664 1.0067 1.00677 1.00682 1.00685 1.00686 1.00685 1.00682 1.00676 1.00668 1.00656 1.00643 1.00627 1.00609 1.00588 1.00566 1.00542 1.00517 1.0049 1.00462 1.00433 1.00403 1.00372 1.00339 1.00305 1.0027 1.00233 1.00194 1.00153 1.0011 1.00064 1.00016 0.999643 0.9991 0.998523 0.997914 0.997271 0.996593 0.995882 0.995137 0.994361 0.993556 0.992723 0.991865 0.990985 0.990086 0.98917 0.988241 0.9873 0.986352 0.985397 0.98444 0.983481 0.982524 0.98157 0.98062 0.979677 0.978741 0.977813 0.976895 0.975984 0.975083 0.974188 0.973299 0.972414 0.971529 0.970642 0.969749 0.968845 0.967927 0.966993 0.966038 0.965061 0.964062 0.963042 0.962003 0.960949 0.959885 0.958816 0.957746 0.956681 0.955623 0.954576 0.953541 0.952517 0.951505 0.950502 0.949508 0.948523 0.947545 0.946575 0.945616 0.944668 0.943734 0.942818 0.94192 0.941045 0.940192 0.939362 0.938555 0.937769 0.937001 0.936249 0.935508 0.934775 0.934048 0.933322 0.932595 0.931865 0.931131 0.930392 0.92965 0.928904 0.928157 0.927411 0.92667 0.925937 0.925216 0.924512 0.923828 0.923828 
1.00599 1.00616 1.00621 1.00628 1.00635 1.00643 1.00651 1.00659 1.00667 1.00673 1.00678 1.00682 1.00683 1.00682 1.00679 1.00673 1.00664 1.00652 1.00638 1.00621 1.00602 1.00581 1.00557 1.00532 1.00506 1.00478 1.00449 1.00419 1.00388 1.00356 1.00323 1.00289 1.00253 1.00216 1.00177 1.00137 1.00094 1.00049 1.00002 0.999518 0.998987 0.998422 0.997825 0.997194 0.996528 0.995827 0.995094 0.994327 0.99353 0.992704 0.991852 0.990977 0.990081 0.989167 0.988238 0.987298 0.986348 0.985391 0.984431 0.983469 0.982507 0.981547 0.980592 0.979642 0.9787 0.977766 0.97684 0.975924 0.975015 0.974114 0.973219 0.972328 0.971437 0.970543 0.969643 0.968733 0.967809 0.966868 0.965906 0.964924 0.963919 0.962895 0.961853 0.960798 0.959736 0.95867 0.957608 0.956553 0.95551 0.95448 0.953464 0.952463 0.951475 0.950499 0.949532 0.948574 0.947622 0.946678 0.945743 0.944817 0.943903 0.943004 0.942123 0.941262 0.940422 0.939605 0.938809 0.938035 0.93728 0.936541 0.935814 0.935096 0.934384 0.933674 0.932964 0.932252 0.931536 0.930816 0.930092 0.929365 0.928637 0.92791 0.927186 0.926469 0.925761 0.925067 0.924389 0.924389 
1.00594 1.00613 1.00618 1.00624 1.00632 1.0064 1.00648 1.00656 1.00664 1.0067 1.00675 1.00679 1.0068 1.00679 1.00675 1.00668 1.00659 1.00647 1.00632 1.00615 1.00595 1.00573 1.00549 1.00523 1.00495 1.00466 1.00437 1.00406 1.00374 1.00341 1.00307 1.00272 1.00237 1.002 1.00161 1.00121 1.00079 1.00035 0.999884 0.999392 0.998871 0.998318 0.997734 0.997114 0.996461 0.995771 0.995048 0.994291 0.993502 0.992683 0.991837 0.990966 0.990074 0.989162 0.988234 0.987292 0.986341 0.985381 0.984417 0.98345 0.982483 0.981518 0.980556 0.9796 0.978651 0.97771 0.976777 0.975854 0.974939 0.974031 0.973129 0.972231 0.971334 0.970434 0.969528 0.968611 0.967681 0.966733 0.965766 0.964778 0.963769 0.962742 0.961699 0.960645 0.959585 0.958526 0.957473 0.95643 0.955403 0.954391 0.953398 0.952421 0.951459 0.950509 0.94957 0.948639 0.947715 0.946797 0.945885 0.944982 0.944088 0.943207 0.942342 0.941495 0.940669 0.939864 0.939081 0.938319 0.937576 0.936849 0.936136 0.935433 0.934737 0.934043 0.933351 0.932656 0.931958 0.931256 0.93055 0.929841 0.92913 0.928419 0.927711 0.927007 0.926312 0.925626 0.924954 0.924954 
1.00593 1.00612 1.00617 1.00623 1.0063 1.00638 1.00646 1.00654 1.00661 1.00668 1.00673 1.00676 1.00677 1.00675 1.00671 1.00664 1.00654 1.00642 1.00627 1.00608 1.00588 1.00565 1.0054 1.00514 1.00485 1.00456 1.00425 1.00393 1.0036 1.00326 1.00292 1.00257 1.00221 1.00184 1.00145 1.00106 1.00064 1.00021 0.99975 0.999268 0.998758 0.998217 0.997644 0.997037 0.996395 0.995717 0.995005 0.994257 0.993477 0.992665 0.991825 0.990959 0.990069 0.989158 0.98823 0.987288 0.986334 0.985371 0.984403 0.983431 0.982458 0.981486 0.980518 0.979554 0.978598 0.977649 0.976709 0.975778 0.974855 0.97394 0.973032 0.972127 0.971223 0.970316 0.969404 0.968481 0.967545 0.966591 0.965619 0.964627 0.963615 0.962585 0.961542 0.960491 0.959436 0.958385 0.957343 0.956316 0.955305 0.954315 0.953344 0.952392 0.951456 0.950535 0.949624 0.948721 0.947824 0.946932 0.946044 0.945163 0.944289 0.943427 0.942578 0.941745 0.940932 0.940139 0.939368 0.938618 0.937887 0.937173 0.936474 0.935785 0.935104 0.934427 0.933751 0.933073 0.932393 0.931709 0.93102 0.930328 0.929634 0.928939 0.928245 0.927554 0.926869 0.926192 0.925525 0.925525 
1.00593 1.00614 1.00618 1.00624 1.00631 1.00638 1.00646 1.00653 1.0066 1.00666 1.0067 1.00673 1.00673 1.00671 1.00667 1.0066 1.0065 1.00637 1.00621 1.00602 1.00582 1.00558 1.00533 1.00505 1.00476 1.00446 1.00414 1.00381 1.00348 1.00313 1.00279 1.00243 1.00206 1.00169 1.00131 1.00091 1.0005 1.00007 0.999626 0.999152 0.998653 0.998123 0.997563 0.996967 0.996338 0.995671 0.99497 0.994232 0.99346 0.992656 0.991821 0.990959 0.990072 0.989162 0.988234 0.98729 0.986333 0.985367 0.984393 0.983415 0.982436 0.981456 0.98048 0.979509 0.978544 0.977587 0.976639 0.9757 0.974769 0.973846 0.97293 0.972018 0.971107 0.970193 0.969274 0.968345 0.967403 0.966445 0.965468 0.964472 0.963458 0.962428 0.961387 0.96034 0.959292 0.958252 0.957223 0.956211 0.95522 0.954251 0.953304 0.952378 0.95147 0.950576 0.949693 0.948818 0.947948 0.947082 0.946218 0.945359 0.944506 0.943661 0.942828 0.94201 0.94121 0.940429 0.93967 0.938931 0.938212 0.937511 0.936825 0.93615 0.935484 0.934823 0.934163 0.933503 0.93284 0.932173 0.931502 0.930827 0.930149 0.929468 0.928788 0.928109 0.927435 0.926766 0.926105 0.926105 
1.00596 1.00617 1.00621 1.00627 1.00633 1.0064 1.00647 1.00654 1.0066 1.00665 1.00669 1.00671 1.00671 1.00668 1.00663 1.00656 1.00645 1.00632 1.00616 1.00597 1.00576 1.00552 1.00526 1.00498 1.00468 1.00437 1.00405 1.00371 1.00337 1.00302 1.00267 1.0023 1.00194 1.00156 1.00118 1.00079 1.00038 0.999957 0.999517 0.999052 0.998563 0.998045 0.997496 0.996913 0.996295 0.99564 0.994949 0.994221 0.993458 0.99266 0.991831 0.990973 0.990088 0.989179 0.988251 0.987304 0.986344 0.985373 0.984394 0.983409 0.982422 0.981435 0.98045 0.97947 0.978496 0.97753 0.976572 0.975624 0.974684 0.973753 0.972828 0.971908 0.970989 0.970068 0.969142 0.968207 0.967259 0.966295 0.965315 0.964316 0.963301 0.962273 0.961235 0.960194 0.959156 0.958127 0.957113 0.95612 0.955149 0.954203 0.953281 0.952381 0.9515 0.950635 0.94978 0.948932 0.948089 0.947247 0.946408 0.94557 0.944736 0.94391 0.943092 0.942289 0.941501 0.940733 0.939985 0.939257 0.93855 0.937861 0.937188 0.936527 0.935876 0.93523 0.934587 0.933944 0.933298 0.932649 0.931994 0.931336 0.930673 0.930007 0.92934 0.928674 0.92801 0.927349 0.926695 0.926695 
1.006 1.00622 1.00626 1.00631 1.00637 1.00643 1.00649 1.00655 1.00661 1.00665 1.00668 1.00669 1.00669 1.00666 1.0066 1.00652 1.00641 1.00628 1.00611 1.00592 1.00571 1.00547 1.00521 1.00492 1.00462 1.0043 1.00398 1.00363 1.00329 1.00293 1.00257 1.0022 1.00183 1.00146 1.00107 1.00068 1.00028 0.999863 0.99943 0.998975 0.998496 0.997989 0.997451 0.99688 0.996274 0.99563 0.994949 0.994231 0.993476 0.992685 0.991862 0.991007 0.990124 0.989216 0.988286 0.987337 0.986373 0.985396 0.98441 0.983418 0.982422 0.981426 0.980432 0.979442 0.978458 0.977481 0.976513 0.975554 0.974605 0.973664 0.972729 0.9718 0.970872 0.969944 0.96901 0.968068 0.967114 0.966146 0.965162 0.964162 0.963148 0.962122 0.961089 0.960056 0.959029 0.958014 0.957017 0.956043 0.955094 0.954172 0.953275 0.952402 0.951548 0.95071 0.949883 0.949062 0.948244 0.947428 0.946611 0.945795 0.944981 0.944171 0.94337 0.94258 0.941806 0.941049 0.940312 0.939596 0.9389 0.938223 0.937563 0.936916 0.936279 0.935649 0.935022 0.934395 0.933766 0.933133 0.932496 0.931854 0.931206 0.930555 0.929902 0.929247 0.928594 0.927942 0.927296 0.927296 
1.00606 1.00629 1.00633 1.00637 1.00642 1.00647 1.00653 1.00658 1.00663 1.00666 1.00668 1.00669 1.00667 1.00664 1.00658 1.00649 1.00638 1.00624 1.00608 1.00589 1.00567 1.00543 1.00517 1.00488 1.00458 1.00426 1.00392 1.00358 1.00323 1.00286 1.0025 1.00213 1.00176 1.00138 1.001 1.00061 1.00021 0.999799 0.999373 0.998926 0.998457 0.997961 0.997435 0.996875 0.996281 0.995648 0.994977 0.994268 0.993521 0.992737 0.991918 0.991066 0.990185 0.989277 0.988345 0.987393 0.986424 0.985441 0.984447 0.983447 0.982442 0.981436 0.980431 0.979429 0.978433 0.977445 0.976465 0.975495 0.974534 0.973581 0.972636 0.971697 0.970759 0.969822 0.96888 0.967931 0.966972 0.965999 0.965012 0.964012 0.962999 0.961977 0.960952 0.959928 0.958914 0.957914 0.956936 0.955982 0.955056 0.954158 0.953287 0.952441 0.951614 0.950803 0.950002 0.949208 0.948415 0.947622 0.946828 0.946033 0.945237 0.944445 0.943659 0.942884 0.942122 0.941377 0.940652 0.939947 0.939262 0.938597 0.937949 0.937315 0.936692 0.936077 0.935466 0.934855 0.934243 0.933627 0.933007 0.93238 0.931749 0.931112 0.930472 0.92983 0.929187 0.928546 0.927907 0.927907 
1.00613 1.00638 1.0064 1.00644 1.00648 1.00653 1.00657 1.00662 1.00666 1.00668 1.00669 1.00669 1.00667 1.00662 1.00656 1.00647 1.00636 1.00622 1.00606 1.00587 1.00565 1.00541 1.00515 1.00486 1.00456 1.00423 1.0039 1.00355 1.00319 1.00283 1.00246 1.00209 1.00171 1.00134 1.00096 1.00057 1.00017 0.999769 0.999351 0.998913 0.998454 0.997968 0.997454 0.996905 0.996321 0.995699 0.995038 0.994337 0.993598 0.992819 0.992005 0.991156 0.990276 0.989366 0.988432 0.987476 0.986501 0.985511 0.984509 0.983499 0.982484 0.981466 0.980449 0.979435 0.978426 0.977424 0.976431 0.975448 0.974473 0.973508 0.972551 0.971599 0.970652 0.969704 0.968754 0.967797 0.966832 0.965855 0.964867 0.963867 0.962857 0.961841 0.960824 0.959812 0.958812 0.95783 0.95687 0.955938 0.955036 0.954163 0.953318 0.952498 0.951698 0.950913 0.950138 0.949369 0.9486 0.947831 0.947058 0.946283 0.945506 0.944731 0.94396 0.943198 0.942449 0.941717 0.941002 0.940309 0.939635 0.938982 0.938346 0.937725 0.937116 0.936516 0.93592 0.935325 0.934729 0.93413 0.933526 0.932916 0.932299 0.931678 0.931051 0.930422 0.92979 0.929159 0.92853 0.92853 
1.00622 1.00647 1.00649 1.00652 1.00655 1.00659 1.00663 1.00666 1.00669 1.00671 1.00671 1.0067 1.00667 1.00662 1.00655 1.00646 1.00635 1.00621 1.00605 1.00586 1.00564 1.0054 1.00514 1.00486 1.00456 1.00423 1.0039 1.00355 1.00319 1.00283 1.00246 1.00208 1.00171 1.00133 1.00095 1.00057 1.00018 0.99978 0.999369 0.99894 0.998491 0.998015 0.997511 0.996973 0.9964 0.995787 0.995136 0.994443 0.99371 0.992936 0.992125 0.991278 0.990398 0.989487 0.988549 0.987587 0.986606 0.985608 0.984596 0.983576 0.982549 0.981519 0.980488 0.97946 0.978437 0.97742 0.976412 0.975414 0.974424 0.973445 0.972474 0.971509 0.970549 0.96959 0.968631 0.967666 0.966696 0.965715 0.964726 0.963727 0.962722 0.961713 0.960707 0.959708 0.958724 0.95776 0.956822 0.955912 0.955034 0.954186 0.953367 0.952573 0.951799 0.951039 0.95029 0.949544 0.948799 0.948052 0.9473 0.946544 0.945785 0.945027 0.944271 0.943524 0.942787 0.942067 0.941364 0.940681 0.940019 0.939377 0.938753 0.938145 0.93755 0.936964 0.936383 0.935805 0.935225 0.934642 0.934054 0.93346 0.932859 0.932252 0.931639 0.931022 0.930403 0.929782 0.929163 0.929163 
1.00631 1.00657 1.00658 1.00661 1.00663 1.00666 1.00669 1.00672 1.00674 1.00674 1.00674 1.00672 1.00668 1.00663 1.00656 1.00646 1.00635 1.00621 1.00605 1.00586 1.00565 1.00542 1.00516 1.00488 1.00458 1.00426 1.00393 1.00358 1.00322 1.00286 1.00249 1.00212 1.00174 1.00137 1.00099 1.00061 1.00023 0.999836 0.999433 0.999012 0.998572 0.998106 0.997612 0.997083 0.996519 0.995916 0.995272 0.994585 0.993858 0.993088 0.99228 0.991433 0.990552 0.989638 0.988695 0.987728 0.986739 0.985731 0.98471 0.983678 0.982638 0.981594 0.980549 0.979505 0.978465 0.977432 0.976407 0.975392 0.974386 0.973389 0.972403 0.971424 0.97045 0.96948 0.96851 0.967538 0.966561 0.965579 0.964589 0.963593 0.962593 0.961594 0.9606 0.959616 0.95865 0.957706 0.956789 0.955904 0.95505 0.954227 0.953434 0.952665 0.951916 0.951181 0.950456 0.949734 0.949011 0.948285 0.947553 0.946816 0.946075 0.945333 0.944592 0.943859 0.943135 0.942427 0.941736 0.941064 0.940414 0.939783 0.939172 0.938577 0.937995 0.937423 0.936857 0.936294 0.93573 0.935163 0.934591 0.934013 0.933427 0.932835 0.932236 0.931632 0.931025 0.930415 0.929806 0.929806 
1.0064 1.00667 1.00668 1.0067 1.00672 1.00674 1.00676 1.00678 1.00679 1.00679 1.00677 1.00675 1.00671 1.00665 1.00657 1.00648 1.00636 1.00623 1.00607 1.00589 1.00568 1.00545 1.0052 1.00492 1.00463 1.00432 1.00399 1.00364 1.00329 1.00293 1.00256 1.00219 1.00182 1.00145 1.00108 1.0007 1.00032 0.999938 0.999543 0.99913 0.998699 0.998241 0.997756 0.997236 0.99668 0.996084 0.995446 0.994765 0.994041 0.993275 0.992467 0.991619 0.990736 0.989818 0.98887 0.987895 0.986897 0.985879 0.984847 0.983801 0.982747 0.981689 0.980626 0.979566 0.978508 0.977457 0.976413 0.975378 0.974355 0.973341 0.972336 0.971341 0.970353 0.969369 0.968389 0.967409 0.966427 0.965442 0.964454 0.963462 0.962471 0.961482 0.960502 0.959536 0.958588 0.957666 0.956773 0.955911 0.955082 0.954285 0.953517 0.952773 0.952049 0.951338 0.950636 0.949936 0.949235 0.948529 0.947816 0.947098 0.946374 0.945648 0.944923 0.944203 0.943493 0.942797 0.942118 0.941458 0.940819 0.9402 0.939601 0.939019 0.93845 0.937892 0.937341 0.936793 0.936245 0.935694 0.935138 0.934575 0.934004 0.933427 0.932842 0.932251 0.931656 0.931059 0.93046 0.93046 
1.0065 1.00678 1.00679 1.0068 1.00681 1.00682 1.00684 1.00684 1.00684 1.00683 1.00682 1.00678 1.00674 1.00668 1.0066 1.0065 1.00639 1.00626 1.0061 1.00592 1.00573 1.0055 1.00526 1.00499 1.0047 1.0044 1.00407 1.00374 1.00339 1.00303 1.00267 1.00231 1.00194 1.00157 1.00121 1.00084 1.00047 1.00009 0.9997 0.999295 0.998872 0.998422 0.997944 0.997431 0.996882 0.99629 0.995658 0.99498 0.994258 0.993492 0.992683 0.991835 0.990947 0.990023 0.989069 0.988084 0.987076 0.986048 0.985001 0.98394 0.982875 0.981797 0.980717 0.979639 0.978561 0.977489 0.976426 0.97537 0.974325 0.973294 0.972268 0.971255 0.970252 0.969254 0.968262 0.967276 0.966289 0.965303 0.964318 0.963333 0.962351 0.961376 0.960412 0.959465 0.958538 0.957639 0.95677 0.955934 0.955131 0.954359 0.953616 0.952897 0.952196 0.951509 0.950829 0.95015 0.949469 0.948783 0.94809 0.947389 0.946682 0.945972 0.945262 0.944557 0.94386 0.943177 0.94251 0.941862 0.941235 0.940628 0.940041 0.939472 0.938917 0.938373 0.937836 0.937303 0.93677 0.936235 0.935694 0.935147 0.934592 0.934028 0.933458 0.932881 0.932298 0.931713 0.931126 0.931126 
1.0066 1.00689 1.00689 1.0069 1.0069 1.00691 1.00691 1.00691 1.00691 1.00689 1.00686 1.00683 1.00678 1.00671 1.00664 1.00654 1.00643 1.0063 1.00615 1.00598 1.00579 1.00558 1.00534 1.00508 1.00481 1.00451 1.00419 1.00386 1.00352 1.00318 1.00282 1.00246 1.00211 1.00175 1.00139 1.00102 1.00066 1.00029 0.999905 0.999507 0.99909 0.998646 0.998174 0.997666 0.99712 0.996533 0.995902 0.995226 0.994505 0.993737 0.992926 0.992073 0.991178 0.99025 0.989285 0.988289 0.987272 0.986228 0.985165 0.984096 0.983011 0.981912 0.980819 0.979718 0.978618 0.977522 0.976437 0.975364 0.974291 0.973238 0.972197 0.971161 0.970139 0.969131 0.968127 0.967132 0.966145 0.965157 0.964178 0.963201 0.962231 0.961272 0.960326 0.9594 0.958498 0.957623 0.95678 0.955969 0.955192 0.954446 0.953729 0.953034 0.952357 0.951692 0.951033 0.950376 0.949715 0.949047 0.948372 0.947689 0.946999 0.946305 0.945611 0.94492 0.944237 0.943567 0.942912 0.942277 0.941662 0.941068 0.940493 0.939937 0.939395 0.938865 0.938343 0.937825 0.937307 0.936787 0.936261 0.935729 0.935189 0.93464 0.934084 0.93352 0.93295 0.932377 0.931802 0.931802 
1.00671 1.007 1.007 1.007 1.007 1.007 1.007 1.00699 1.00698 1.00695 1.00692 1.00688 1.00683 1.00676 1.00669 1.00659 1.00648 1.00636 1.00622 1.00605 1.00587 1.00567 1.00544 1.0052 1.00493 1.00464 1.00434 1.00402 1.0037 1.00336 1.00301 1.00266 1.00231 1.00196 1.00161 1.00126 1.0009 1.00053 1.00016 0.999763 0.999351 0.998911 0.998443 0.997937 0.997394 0.996808 0.996176 0.995499 0.994775 0.994003 0.993191 0.992328 0.991429 0.990492 0.989511 0.988509 0.987475 0.986412 0.985341 0.984257 0.983143 0.982038 0.980926 0.979789 0.978672 0.977557 0.976438 0.975343 0.974257 0.973169 0.972108 0.971056 0.97001 0.968987 0.967978 0.966972 0.965984 0.965002 0.964026 0.963063 0.962107 0.961166 0.960242 0.959339 0.958463 0.957615 0.956798 0.956015 0.955265 0.954546 0.953853 0.953183 0.952529 0.951886 0.951249 0.950611 0.94997 0.949321 0.948664 0.947998 0.947325 0.946647 0.945967 0.945291 0.944623 0.943966 0.943325 0.942702 0.9421 0.941519 0.940957 0.940414 0.939885 0.939369 0.938861 0.938358 0.937855 0.93735 0.93684 0.936323 0.935797 0.935263 0.93472 0.93417 0.933614 0.933053 0.93249 0.93249 