# vtk DataFile Version 3.0
LBM simulation at step 80
ASCII
DATASET STRUCTURED_POINTS
DIMENSIONS 128 128 1
ORIGIN 0 0 0
SPACING 1 1 1
POINT_DATA 16384
SCALARS density float
LOOKUP_TABLE default
0.953831 1.01924 1.021 1.01771 1.01795 1.01816 1.01802 1.01792 1.01787 1.01783 1.01778 1.01774 1.01771 1.01768 1.01765 1.01762 1.01759 1.01757 1.01754 1.01752 1.01749 1.01747 1.01745 1.01742 1.0174 1.01737 1.01734 1.01731 1.01728 1.01724 1.01719 1.01714 1.01707 1.01698 1.01687 1.01671 1.0165 1.01622 1.01583 1.0153 1.01457 1.01359 1.01232 1.01078 1.00903 1.0072 1.00543 1.00387 1.0026 1.00164 1.00097 1.00054 1.00028 1.00014 1.00006 1.00003 1.00001 1 1 1 1 1 1 1 1 1 1 1 1 1 1 1 0.999999 0.999997 0.999992 0.999982 0.99996 0.999918 0.999842 0.999715 0.999516 0.999225 0.998828 0.998317 0.997699 0.996991 0.996218 0.995409 0.994589 0.993777 0.992986 0.99222 0.991483 0.990774 0.99009 0.98943 0.98879 0.988168 0.987561 0.986966 0.986381 0.985805 0.985234 0.984668 0.984105 0.983543 0.982981 0.982419 0.981855 0.981287 0.980714 0.980136 0.97955 0.978955 0.978349 0.97773 0.977096 0.976443 0.975766 0.975065 0.974315 0.973497 0.972655 0.972116 0.970075 0.968597 0.985865 0.985865 
1.02181 1.01986 1.01606 1.01734 1.0182 1.01813 1.01799 1.01792 1.01786 1.01782 1.01778 1.01774 1.0177 1.01767 1.01764 1.01761 1.01758 1.01756 1.01753 1.01751 1.01748 1.01746 1.01743 1.0174 1.01738 1.01735 1.01732 1.01728 1.01725 1.0172 1.01715 1.01709 1.01702 1.01692 1.0168 1.01663 1.01641 1.01611 1.01571 1.01518 1.01447 1.01354 1.01234 1.01089 1.00923 1.00746 1.00572 1.00414 1.00282 1.00181 1.00109 1.00062 1.00033 1.00016 1.00008 1.00003 1.00001 1.00001 1 1 1 1 1 1 1 1 1 1 1 1 1 1 0.999999 0.999996 0.999991 0.999978 0.999953 0.999905 0.99982 0.99968 0.999466 0.999158 0.998744 0.998221 0.997597 0.99689 0.996125 0.995328 0.994522 0.993724 0.992944 0.992187 0.991456 0.990751 0.990069 0.989411 0.988771 0.988149 0.987542 0.986946 0.98636 0.985782 0.98521 0.984642 0.984076 0.983513 0.982949 0.982384 0.981817 0.981246 0.980669 0.980087 0.979496 0.978895 0.978283 0.977656 0.977012 0.976347 0.975658 0.974942 0.974189 0.973337 0.972301 0.971479 0.971964 0.972914 0.970844 0.970844 
1.0292 1.01674 1.01612 1.01865 1.01827 1.01787 1.01789 1.01792 1.01786 1.01781 1.01776 1.01773 1.01769 1.01766 1.01763 1.0176 1.01757 1.01754 1.01752 1.01749 1.01746 1.01744 1.01741 1.01738 1.01735 1.01732 1.01729 1.01725 1.01721 1.01716 1.01711 1.01704 1.01696 1.01685 1.01672 1.01654 1.01631 1.01602 1.01563 1.01512 1.01445 1.01358 1.01245 1.01106 1.00944 1.0077 1.00595 1.00435 1.003 1.00194 1.00118 1.00067 1.00036 1.00018 1.00009 1.00004 1.00002 1.00001 1 1 1 1 1 1 1 1 1 1 1 1 1 0.999999 0.999998 0.999996 0.99999 0.999976 0.999949 0.999897 0.999807 0.999661 0.999437 0.999118 0.998693 0.998159 0.997527 0.996815 0.996051 0.995259 0.99446 0.993672 0.992902 0.992154 0.991431 0.990732 0.990056 0.9894 0.988763 0.988142 0.987534 0.986938 0.986351 0.985772 0.985199 0.984629 0.984062 0.983497 0.982931 0.982364 0.981794 0.98122 0.980641 0.980055 0.97946 0.978855 0.978238 0.977605 0.976955 0.976285 0.975587 0.974842 0.974059 0.973293 0.972528 0.971526 0.970836 0.968827 0.962098 0.962098 
1.01401 1.01837 1.02039 1.01807 1.01744 1.01795 1.01802 1.01788 1.01781 1.01778 1.01775 1.01771 1.01767 1.01764 1.01761 1.01758 1.01755 1.01753 1.0175 1.01747 1.01744 1.01742 1.01739 1.01736 1.01733 1.01729 1.01726 1.01722 1.01717 1.01712 1.01706 1.01698 1.0169 1.01678 1.01664 1.01647 1.01624 1.01595 1.01557 1.01509 1.01446 1.01363 1.01255 1.01122 1.00964 1.00792 1.00617 1.00454 1.00315 1.00206 1.00126 1.00073 1.00039 1.0002 1.00009 1.00004 1.00002 1.00001 1 1 1 1 1 1 1 1 1 1 1 1 1 0.999999 0.999998 0.999995 0.999989 0.999975 0.999946 0.999893 0.9998 0.999648 0.999419 0.999093 0.99866 0.99812 0.997483 0.996769 0.996004 0.995215 0.994421 0.993639 0.992875 0.992135 0.991418 0.990724 0.990051 0.989398 0.988763 0.988143 0.987536 0.986941 0.986354 0.985774 0.985199 0.984629 0.984061 0.983494 0.982927 0.982358 0.981786 0.98121 0.980629 0.980041 0.979443 0.978836 0.978215 0.97758 0.976925 0.976248 0.975548 0.974822 0.974041 0.97318 0.972384 0.971591 0.970396 0.968211 0.963852 0.963852 
1.01822 1.01891 1.01802 1.01759 1.01816 1.01806 1.01783 1.01781 1.01781 1.01777 1.01772 1.01769 1.01766 1.01763 1.01759 1.01757 1.01754 1.01751 1.01748 1.01745 1.01742 1.01739 1.01736 1.01733 1.0173 1.01726 1.01722 1.01718 1.01713 1.01708 1.01701 1.01694 1.01684 1.01673 1.01658 1.0164 1.01617 1.01589 1.01552 1.01506 1.01446 1.01367 1.01265 1.01136 1.00983 1.00812 1.00638 1.00473 1.0033 1.00217 1.00134 1.00078 1.00042 1.00021 1.0001 1.00005 1.00002 1.00001 1 1 1 1 1 1 1 1 1 1 1 1 1 0.999999 0.999998 0.999995 0.999989 0.999974 0.999945 0.99989 0.999795 0.999642 0.999409 0.99908 0.998643 0.9981 0.99746 0.996745 0.995981 0.995194 0.994405 0.993627 0.992869 0.992133 0.991421 0.99073 0.99006 0.98941 0.988776 0.988157 0.98755 0.986954 0.986367 0.985787 0.985212 0.984641 0.984072 0.983504 0.982935 0.982365 0.981793 0.981215 0.980633 0.980043 0.979445 0.978836 0.978214 0.977577 0.976924 0.976247 0.975541 0.974807 0.974054 0.973253 0.97238 0.971375 0.969807 0.968414 0.967223 0.967223 
1.01914 1.01806 1.01763 1.01826 1.01813 1.01778 1.01781 1.01784 1.01778 1.01773 1.0177 1.01767 1.01764 1.01761 1.01757 1.01755 1.01752 1.01749 1.01746 1.01743 1.0174 1.01737 1.01734 1.01731 1.01727 1.01723 1.01719 1.01715 1.0171 1.01704 1.01697 1.01689 1.01679 1.01667 1.01652 1.01634 1.01611 1.01583 1.01548 1.01503 1.01446 1.01372 1.01275 1.01151 1.01001 1.00833 1.00658 1.00491 1.00345 1.00228 1.00141 1.00082 1.00045 1.00023 1.00011 1.00005 1.00002 1.00001 1 1 1 1 1 1 1 1 1 1 1 1 1 0.999999 0.999998 0.999995 0.999989 0.999974 0.999945 0.99989 0.999795 0.999641 0.999408 0.999078 0.998641 0.998097 0.997457 0.996743 0.99598 0.995195 0.994409 0.993635 0.992881 0.992149 0.99144 0.990752 0.990085 0.989435 0.988802 0.988184 0.987577 0.986981 0.986393 0.985813 0.985237 0.984665 0.984095 0.983526 0.982957 0.982387 0.981813 0.981235 0.980652 0.980062 0.979463 0.978854 0.978233 0.977597 0.976943 0.976271 0.975575 0.974845 0.974081 0.973288 0.972408 0.971456 0.970249 0.969037 0.968245 0.968245 
1.01765 1.01796 1.01816 1.01803 1.01777 1.01785 1.01787 1.01777 1.01772 1.01771 1.01768 1.01764 1.01761 1.01758 1.01755 1.01752 1.01749 1.01747 1.01744 1.01741 1.01738 1.01735 1.01732 1.01728 1.01725 1.01721 1.01716 1.01712 1.01706 1.017 1.01693 1.01684 1.01674 1.01662 1.01646 1.01628 1.01605 1.01577 1.01543 1.01501 1.01447 1.01377 1.01285 1.01166 1.0102 1.00853 1.00677 1.00508 1.00359 1.00238 1.00148 1.00087 1.00047 1.00024 1.00012 1.00005 1.00002 1.00001 1 1 1 1 1 1 1 1 1 1 1 1 1 0.999999 0.999998 0.999995 0.999989 0.999975 0.999946 0.999892 0.999798 0.999646 0.999415 0.999088 0.998653 0.998112 0.997474 0.996761 0.996 0.995217 0.994432 0.993661 0.99291 0.992181 0.991475 0.99079 0.990124 0.989475 0.988843 0.988224 0.987618 0.987021 0.986433 0.985852 0.985275 0.984703 0.984132 0.983563 0.982993 0.982422 0.981848 0.98127 0.980686 0.980096 0.979498 0.97889 0.97827 0.977636 0.976986 0.976316 0.975625 0.974911 0.974162 0.973375 0.9725 0.971565 0.970669 0.969645 0.968669 0.968669 
1.01782 1.01793 1.01794 1.0178 1.01784 1.01786 1.01776 1.01772 1.01771 1.01768 1.01764 1.01762 1.01759 1.01756 1.01753 1.0175 1.01747 1.01745 1.01741 1.01739 1.01736 1.01732 1.01729 1.01726 1.01722 1.01718 1.01713 1.01708 1.01702 1.01696 1.01688 1.0168 1.01669 1.01656 1.01641 1.01622 1.01599 1.01572 1.01539 1.01499 1.01449 1.01383 1.01295 1.01181 1.01038 1.00872 1.00696 1.00525 1.00372 1.00248 1.00155 1.00091 1.0005 1.00026 1.00012 1.00006 1.00002 1.00001 1 1 1 1 1 1 1 1 1 1 1 1 1 0.999999 0.999998 0.999996 0.999989 0.999976 0.999948 0.999896 0.999805 0.999656 0.99943 0.999108 0.998679 0.998143 0.997509 0.9968 0.996041 0.995259 0.994475 0.993705 0.992956 0.992229 0.991525 0.990842 0.990177 0.98953 0.988897 0.988279 0.987672 0.987075 0.986486 0.985904 0.985327 0.984754 0.984183 0.983613 0.983043 0.982471 0.981897 0.981319 0.980736 0.980146 0.979549 0.978942 0.978324 0.977694 0.977048 0.976386 0.975702 0.974995 0.974258 0.973489 0.972684 0.971812 0.970956 0.97007 0.969128 0.969128 
1.01792 1.01781 1.01778 1.01781 1.01782 1.01775 1.01772 1.01771 1.01768 1.01764 1.01762 1.01759 1.01756 1.01753 1.0175 1.01748 1.01745 1.01742 1.01739 1.01736 1.01733 1.0173 1.01726 1.01723 1.01719 1.01715 1.0171 1.01705 1.01699 1.01692 1.01684 1.01675 1.01664 1.01651 1.01635 1.01616 1.01594 1.01567 1.01536 1.01498 1.01451 1.01389 1.01306 1.01196 1.01056 1.00891 1.00714 1.0054 1.00385 1.00257 1.00161 1.00094 1.00052 1.00027 1.00013 1.00006 1.00002 1.00001 1 1 1 1 1 1 1 1 1 1 1 1 1 0.999999 0.999998 0.999996 0.99999 0.999977 0.999951 0.999901 0.999814 0.999671 0.999451 0.999138 0.998718 0.99819 0.997564 0.996859 0.996103 0.995322 0.994539 0.993769 0.99302 0.992294 0.991591 0.990908 0.990245 0.989598 0.988966 0.988347 0.98774 0.987142 0.986553 0.98597 0.985392 0.984818 0.984247 0.983676 0.983106 0.982534 0.98196 0.981382 0.9808 0.980211 0.979615 0.979011 0.978396 0.977769 0.977128 0.976472 0.975798 0.975103 0.974383 0.97363 0.972862 0.972065 0.971227 0.97041 0.969586 0.969586 
1.01774 1.01775 1.01776 1.01776 1.01773 1.0177 1.0177 1.01767 1.01763 1.01761 1.01759 1.01756 1.01753 1.01751 1.01748 1.01745 1.01742 1.0174 1.01737 1.01734 1.0173 1.01727 1.01724 1.0172 1.01716 1.01711 1.01707 1.01701 1.01695 1.01688 1.0168 1.0167 1.01659 1.01645 1.0163 1.01611 1.01589 1.01563 1.01533 1.01498 1.01454 1.01396 1.01318 1.01211 1.01074 1.0091 1.00732 1.00556 1.00397 1.00265 1.00167 1.00098 1.00054 1.00028 1.00013 1.00006 1.00003 1.00001 1 1 1 1 1 1 1 1 1 1 1 1 1 1 0.999999 0.999996 0.999991 0.999979 0.999954 0.999908 0.999825 0.999689 0.999479 0.999177 0.998769 0.998253 0.997636 0.996938 0.996186 0.995407 0.994623 0.993852 0.993102 0.992376 0.991673 0.990991 0.990327 0.98968 0.989048 0.988429 0.987821 0.987223 0.986633 0.986049 0.985471 0.984896 0.984324 0.983754 0.983183 0.982611 0.982037 0.98146 0.980878 0.980291 0.979697 0.979095 0.978483 0.977861 0.977226 0.976576 0.975911 0.975227 0.974525 0.9738 0.973052 0.972294 0.971508 0.970723 0.969954 0.969954 
1.01769 1.0177 1.0177 1.01769 1.01768 1.01767 1.01765 1.01762 1.0176 1.01758 1.01755 1.01753 1.0175 1.01748 1.01745 1.01743 1.0174 1.01737 1.01734 1.01731 1.01728 1.01724 1.01721 1.01717 1.01713 1.01708 1.01703 1.01697 1.01691 1.01684 1.01675 1.01665 1.01654 1.0164 1.01624 1.01605 1.01584 1.01559 1.0153 1.01498 1.01457 1.01404 1.01329 1.01226 1.01091 1.00929 1.00749 1.0057 1.00408 1.00274 1.00172 1.00101 1.00056 1.00029 1.00014 1.00006 1.00003 1.00001 1 1 1 1 1 1 1 1 1 1 1 1 1 1 0.999999 0.999997 0.999992 0.999981 0.999959 0.999916 0.999839 0.999711 0.999512 0.999223 0.99883 0.998329 0.997725 0.997037 0.99629 0.995513 0.994729 0.993956 0.993204 0.992476 0.991772 0.991089 0.990425 0.989778 0.989145 0.988525 0.987916 0.987317 0.986727 0.986142 0.985563 0.984988 0.984416 0.983845 0.983274 0.982702 0.982129 0.981552 0.980972 0.980386 0.979794 0.979194 0.978586 0.977968 0.977339 0.976697 0.976041 0.975369 0.974681 0.973978 0.973254 0.972518 0.971774 0.971019 0.970273 0.970273 
1.01766 1.01765 1.01765 1.01764 1.01764 1.01762 1.0176 1.01759 1.01757 1.01755 1.01752 1.0175 1.01747 1.01745 1.01742 1.0174 1.01737 1.01734 1.01731 1.01728 1.01725 1.01722 1.01718 1.01714 1.0171 1.01705 1.017 1.01694 1.01687 1.0168 1.01671 1.01661 1.01649 1.01635 1.01619 1.016 1.01579 1.01555 1.01529 1.01498 1.01461 1.01412 1.01341 1.01242 1.01109 1.00947 1.00766 1.00584 1.00418 1.00281 1.00177 1.00104 1.00057 1.0003 1.00014 1.00007 1.00003 1.00001 1 1 1 1 1 1 1 1 1 1 1 1 1 1 0.999999 0.999997 0.999993 0.999983 0.999963 0.999924 0.999853 0.999735 0.999549 0.999276 0.998901 0.998417 0.997829 0.997154 0.996415 0.995641 0.994856 0.99408 0.993325 0.992594 0.991888 0.991203 0.990538 0.98989 0.989257 0.988636 0.988026 0.987426 0.986835 0.986249 0.98567 0.985094 0.984521 0.98395 0.983379 0.982807 0.982234 0.981659 0.981079 0.980495 0.979905 0.979309 0.978704 0.978091 0.977467 0.976833 0.976186 0.975526 0.974851 0.974164 0.973463 0.972748 0.972027 0.971299 0.970571 0.970571 
1.01761 1.0176 1.0176 1.0176 1.01759 1.01758 1.01756 1.01755 1.01753 1.01751 1.01749 1.01747 1.01744 1.01742 1.01739 1.01737 1.01734 1.01732 1.01729 1.01725 1.01722 1.01719 1.01715 1.01711 1.01706 1.01701 1.01696 1.0169 1.01683 1.01675 1.01666 1.01656 1.01644 1.0163 1.01614 1.01596 1.01575 1.01552 1.01527 1.015 1.01466 1.01421 1.01354 1.01258 1.01127 1.00964 1.00782 1.00597 1.00428 1.00288 1.00181 1.00107 1.00059 1.0003 1.00015 1.00007 1.00003 1.00001 1 1 1 1 1 1 1 1 1 1 1 1 1 1 0.999999 0.999998 0.999994 0.999985 0.999968 0.999933 0.999869 0.999761 0.999589 0.999334 0.998979 0.998516 0.997948 0.997288 0.99656 0.99579 0.995005 0.994227 0.993467 0.992732 0.992022 0.991335 0.990668 0.990019 0.989384 0.988762 0.988151 0.98755 0.986957 0.986371 0.98579 0.985214 0.98464 0.984069 0.983498 0.982927 0.982354 0.98178 0.981202 0.980619 0.980032 0.979438 0.978838 0.978229 0.977611 0.976983 0.976345 0.975695 0.975033 0.97436 0.973676 0.972981 0.972277 0.97157 0.97086 0.97086 
1.01756 1.01756 1.01756 1.01755 1.01755 1.01754 1.01753 1.01751 1.01749 1.01748 1.01746 1.01744 1.01741 1.01739 1.01737 1.01734 1.01731 1.01729 1.01726 1.01723 1.01719 1.01716 1.01712 1.01708 1.01703 1.01698 1.01692 1.01686 1.01679 1.01671 1.01662 1.01651 1.01639 1.01625 1.01609 1.01591 1.01571 1.01549 1.01527 1.01502 1.01472 1.0143 1.01367 1.01274 1.01144 1.00981 1.00797 1.0061 1.00438 1.00294 1.00185 1.00109 1.0006 1.00031 1.00015 1.00007 1.00003 1.00001 1 1 1 1 1 1 1 1 1 1 1 1 1 1 0.999999 0.999998 0.999995 0.999988 0.999972 0.999941 0.999885 0.999787 0.99963 0.999395 0.999063 0.998624 0.998079 0.997438 0.996723 0.99596 0.995177 0.994395 0.99363 0.99289 0.992175 0.991485 0.990815 0.990164 0.989527 0.988903 0.988291 0.987689 0.987095 0.986507 0.985926 0.985349 0.984775 0.984203 0.983632 0.983061 0.982489 0.981915 0.981339 0.980758 0.980173 0.979583 0.978986 0.978381 0.977769 0.977148 0.976518 0.975877 0.975227 0.974566 0.973895 0.973216 0.972528 0.971836 0.971143 0.971143 
1.01752 1.01751 1.01752 1.01751 1.01751 1.0175 1.01749 1.01747 1.01746 1.01744 1.01742 1.0174 1.01738 1.01736 1.01733 1.01731 1.01728 1.01726 1.01723 1.0172 1.01716 1.01713 1.01709 1.01704 1.017 1.01694 1.01689 1.01682 1.01675 1.01667 1.01657 1.01647 1.01634 1.0162 1.01604 1.01587 1.01567 1.01547 1.01526 1.01504 1.01478 1.0144 1.01381 1.0129 1.01161 1.00998 1.00811 1.00621 1.00446 1.003 1.00189 1.00111 1.00061 1.00032 1.00015 1.00007 1.00003 1.00001 1 1 1 1 1 1 1 1 1 1 1 1 1 1 0.999999 0.999998 0.999996 0.99999 0.999976 0.99995 0.9999 0.999814 0.999673 0.999457 0.99915 0.998739 0.99822 0.997603 0.996904 0.996152 0.995371 0.994587 0.993817 0.99307 0.992349 0.991654 0.99098 0.990326 0.989687 0.989061 0.988447 0.987843 0.987248 0.986659 0.986076 0.985499 0.984924 0.984352 0.983781 0.98321 0.982639 0.982066 0.981491 0.980912 0.98033 0.979742 0.979149 0.978549 0.977942 0.977327 0.976704 0.976072 0.975431 0.974781 0.974123 0.973456 0.972783 0.972104 0.971422 0.971422 
1.01748 1.01747 1.01748 1.01747 1.01747 1.01746 1.01745 1.01744 1.01742 1.01741 1.01739 1.01737 1.01735 1.01733 1.0173 1.01728 1.01725 1.01723 1.0172 1.01716 1.01713 1.01709 1.01705 1.01701 1.01696 1.01691 1.01685 1.01678 1.01671 1.01663 1.01653 1.01642 1.0163 1.01616 1.016 1.01583 1.01564 1.01545 1.01527 1.01508 1.01485 1.01451 1.01395 1.01306 1.01178 1.01014 1.00825 1.00632 1.00454 1.00305 1.00192 1.00113 1.00062 1.00032 1.00016 1.00007 1.00003 1.00001 1 1 1 1 1 1 1 1 1 1 1 1 1 1 1 0.999999 0.999997 0.999992 0.99998 0.999958 0.999915 0.99984 0.999714 0.999521 0.99924 0.998858 0.998369 0.997779 0.997102 0.996362 0.995588 0.994803 0.994027 0.993273 0.992545 0.991843 0.991164 0.990506 0.989864 0.989236 0.98862 0.988014 0.987417 0.986827 0.986243 0.985664 0.985089 0.984516 0.983945 0.983375 0.982804 0.982232 0.981659 0.981082 0.980501 0.979917 0.979327 0.978731 0.978129 0.97752 0.976904 0.976279 0.975647 0.975007 0.974359 0.973704 0.973042 0.972374 0.971704 0.971704 
1.01745 1.01744 1.01744 1.01743 1.01743 1.01742 1.01741 1.0174 1.01739 1.01737 1.01735 1.01734 1.01732 1.0173 1.01727 1.01725 1.01722 1.01719 1.01716 1.01713 1.0171 1.01706 1.01702 1.01697 1.01693 1.01687 1.01681 1.01674 1.01667 1.01658 1.01648 1.01637 1.01625 1.01611 1.01595 1.01579 1.01561 1.01544 1.01528 1.01513 1.01494 1.01463 1.0141 1.01323 1.01195 1.01029 1.00838 1.00642 1.00461 1.0031 1.00195 1.00115 1.00063 1.00033 1.00016 1.00007 1.00003 1.00001 1 1 1 1 1 1 1 1 1 1 1 1 1 1 1 0.999999 0.999997 0.999993 0.999984 0.999965 0.999929 0.999864 0.999755 0.999583 0.99933 0.998979 0.998523 0.997964 0.997312 0.996591 0.995826 0.995043 0.994263 0.9935 0.992764 0.992054 0.991369 0.990705 0.99006 0.989429 0.98881 0.988202 0.987603 0.987011 0.986426 0.985846 0.98527 0.984697 0.984126 0.983555 0.982985 0.982414 0.981842 0.981267 0.980689 0.980107 0.97952 0.978929 0.978331 0.977728 0.977117 0.9765 0.975876 0.975244 0.974605 0.97396 0.973308 0.97265 0.971989 0.971989 
1.01741 1.0174 1.0174 1.01739 1.01739 1.01738 1.01738 1.01736 1.01735 1.01734 1.01732 1.0173 1.01728 1.01726 1.01724 1.01722 1.01719 1.01716 1.01713 1.0171 1.01706 1.01703 1.01698 1.01694 1.01689 1.01683 1.01677 1.0167 1.01662 1.01654 1.01644 1.01633 1.0162 1.01606 1.01591 1.01575 1.01559 1.01544 1.01531 1.01519 1.01503 1.01476 1.01425 1.01339 1.01211 1.01044 1.0085 1.00651 1.00467 1.00314 1.00197 1.00116 1.00064 1.00033 1.00016 1.00007 1.00003 1.00001 1 1 1 1 1 1 1 1 1 1 1 1 1 1 1 0.999999 0.999998 0.999995 0.999987 0.999972 0.999942 0.999887 0.999793 0.999643 0.999417 0.9991 0.99868 0.998155 0.997534 0.996836 0.996084 0.995305 0.994523 0.993754 0.993008 0.992288 0.991595 0.990925 0.990275 0.98964 0.989018 0.988407 0.987806 0.987213 0.986626 0.986044 0.985467 0.984894 0.984322 0.983752 0.983182 0.982612 0.982041 0.981468 0.980892 0.980313 0.979729 0.979141 0.978548 0.97795 0.977345 0.976734 0.976117 0.975493 0.974863 0.974226 0.973583 0.972934 0.972281 0.972281 
1.01737 1.01736 1.01736 1.01736 1.01735 1.01735 1.01734 1.01733 1.01732 1.0173 1.01729 1.01727 1.01725 1.01723 1.01721 1.01718 1.01716 1.01713 1.0171 1.01707 1.01703 1.01699 1.01695 1.0169 1.01685 1.01679 1.01673 1.01666 1.01658 1.01649 1.01639 1.01628 1.01616 1.01602 1.01587 1.01572 1.01557 1.01544 1.01534 1.01525 1.01514 1.0149 1.01441 1.01356 1.01227 1.01057 1.00861 1.00659 1.00473 1.00317 1.00199 1.00117 1.00064 1.00033 1.00016 1.00007 1.00003 1.00001 1 1 1 1 1 1 1 1 1 1 1 1 1 1 1 0.999999 0.999998 0.999996 0.99999 0.999978 0.999954 0.999908 0.999829 0.999699 0.999502 0.999218 0.998836 0.998349 0.997764 0.997093 0.99636 0.995591 0.994808 0.994033 0.993278 0.992548 0.991846 0.991168 0.990511 0.989871 0.989246 0.988632 0.988028 0.987432 0.986844 0.986261 0.985683 0.985108 0.984536 0.983966 0.983397 0.982827 0.982257 0.981685 0.981111 0.980535 0.979954 0.97937 0.978781 0.978187 0.977588 0.976983 0.976372 0.975755 0.975132 0.974503 0.973868 0.973227 0.972582 0.972582 
1.01734 1.01732 1.01732 1.01732 1.01732 1.01731 1.0173 1.01729 1.01728 1.01727 1.01725 1.01724 1.01722 1.0172 1.01717 1.01715 1.01712 1.0171 1.01706 1.01703 1.01699 1.01696 1.01691 1.01686 1.01681 1.01675 1.01669 1.01662 1.01654 1.01645 1.01634 1.01623 1.01611 1.01597 1.01583 1.01569 1.01556 1.01546 1.01539 1.01534 1.01525 1.01504 1.01457 1.01372 1.01242 1.0107 1.00871 1.00666 1.00477 1.0032 1.00201 1.00118 1.00065 1.00033 1.00016 1.00007 1.00003 1.00001 1 1 1 1 1 1 1 1 1 1 1 1 1 1 1 1 0.999999 0.999997 0.999993 0.999983 0.999963 0.999926 0.999861 0.999751 0.999581 0.999331 0.998988 0.998543 0.997997 0.99736 0.996652 0.995896 0.995118 0.99434 0.993576 0.992836 0.992122 0.991434 0.99077 0.990124 0.989494 0.988876 0.988269 0.987671 0.98708 0.986495 0.985916 0.98534 0.984768 0.984198 0.983628 0.98306 0.98249 0.98192 0.981348 0.980774 0.980196 0.979615 0.97903 0.978441 0.977847 0.977247 0.976642 0.976031 0.975415 0.974793 0.974165 0.973532 0.972894 0.972894 
1.0173 1.01729 1.01729 1.01728 1.01728 1.01727 1.01727 1.01726 1.01724 1.01723 1.01722 1.0172 1.01718 1.01716 1.01714 1.01712 1.01709 1.01706 1.01703 1.017 1.01696 1.01692 1.01687 1.01683 1.01677 1.01671 1.01665 1.01657 1.01649 1.0164 1.0163 1.01618 1.01606 1.01593 1.0158 1.01567 1.01556 1.01549 1.01545 1.01543 1.01538 1.01519 1.01473 1.01388 1.01256 1.01082 1.0088 1.00672 1.00481 1.00322 1.00202 1.00118 1.00065 1.00033 1.00016 1.00007 1.00003 1.00001 1 1 1 1 1 1 1 1 1 1 1 1 1 1 1 1 0.999999 0.999998 0.999995 0.999987 0.999972 0.999942 0.999889 0.999798 0.999653 0.999438 0.999135 0.998733 0.99823 0.997632 0.996955 0.99622 0.995452 0.994673 0.993902 0.993152 0.992426 0.991727 0.991053 0.9904 0.989763 0.989141 0.988531 0.987929 0.987336 0.98675 0.986168 0.985592 0.985018 0.984448 0.983879 0.98331 0.982742 0.982173 0.981603 0.981031 0.980456 0.979878 0.979297 0.978711 0.978121 0.977527 0.976927 0.976323 0.975713 0.975097 0.974476 0.97385 0.973219 0.973219 
1.01726 1.01725 1.01725 1.01725 1.01724 1.01724 1.01723 1.01722 1.01721 1.0172 1.01718 1.01717 1.01715 1.01713 1.0171 1.01708 1.01705 1.01703 1.01699 1.01696 1.01692 1.01688 1.01683 1.01679 1.01673 1.01667 1.0166 1.01653 1.01644 1.01635 1.01625 1.01614 1.01602 1.01589 1.01577 1.01565 1.01557 1.01553 1.01553 1.01554 1.01552 1.01535 1.0149 1.01403 1.0127 1.01093 1.00888 1.00678 1.00485 1.00324 1.00203 1.00119 1.00065 1.00034 1.00016 1.00007 1.00003 1.00001 1 1 1 1 1 1 1 1 1 1 1 1 1 1 1 1 0.999999 0.999998 0.999996 0.999991 0.999979 0.999956 0.999913 0.999839 0.999719 0.999535 0.999272 0.998915 0.998459 0.997905 0.997265 0.996557 0.995805 0.995032 0.994258 0.993498 0.992761 0.992049 0.991364 0.990701 0.990057 0.989429 0.988814 0.988209 0.987613 0.987024 0.986441 0.985863 0.985289 0.984717 0.984148 0.98358 0.983013 0.982445 0.981876 0.981306 0.980734 0.980159 0.979581 0.978999 0.978414 0.977824 0.97723 0.97663 0.976026 0.975417 0.974802 0.974182 0.973557 0.973557 
1.01723 1.01721 1.01721 1.01721 1.01721 1.0172 1.01719 1.01718 1.01717 1.01716 1.01714 1.01713 1.01711 1.01709 1.01707 1.01704 1.01702 1.01699 1.01696 1.01692 1.01688 1.01684 1.01679 1.01674 1.01669 1.01663 1.01656 1.01648 1.0164 1.0163 1.0162 1.01609 1.01597 1.01585 1.01574 1.01565 1.0156 1.01558 1.01562 1.01567 1.01567 1.01551 1.01505 1.01418 1.01282 1.01102 1.00895 1.00682 1.00488 1.00326 1.00204 1.00119 1.00065 1.00034 1.00016 1.00007 1.00003 1.00001 1 1 1 1 1 1 1 1 1 1 1 1 1 1 1 1 1 0.999999 0.999997 0.999993 0.999984 0.999967 0.999934 0.999874 0.999776 0.999623 0.999399 0.999087 0.99868 0.998174 0.997578 0.996904 0.996175 0.995414 0.994641 0.993875 0.993127 0.992402 0.991704 0.99103 0.990377 0.989742 0.989121 0.988512 0.987913 0.987321 0.986736 0.986156 0.98558 0.985008 0.984438 0.98387 0.983303 0.982736 0.982169 0.981601 0.981031 0.980459 0.979884 0.979306 0.978725 0.978139 0.97755 0.976956 0.976357 0.975754 0.975145 0.974531 0.973913 0.973913 
1.01719 1.01718 1.01718 1.01717 1.01717 1.01716 1.01716 1.01715 1.01714 1.01712 1.01711 1.01709 1.01707 1.01705 1.01703 1.01701 1.01698 1.01695 1.01692 1.01688 1.01684 1.0168 1.01675 1.0167 1.01664 1.01658 1.01651 1.01643 1.01635 1.01625 1.01615 1.01604 1.01593 1.01582 1.01573 1.01566 1.01564 1.01566 1.01573 1.0158 1.01582 1.01567 1.01521 1.01431 1.01293 1.0111 1.009 1.00686 1.0049 1.00327 1.00205 1.0012 1.00066 1.00034 1.00016 1.00007 1.00003 1.00001 1 1 1 1 1 1 1 1 1 1 1 1 1 1 1 1 1 0.999999 0.999998 0.999995 0.999989 0.999976 0.99995 0.999904 0.999826 0.999701 0.999513 0.999246 0.998888 0.998435 0.997887 0.997255 0.996557 0.995815 0.99505 0.994282 0.993525 0.992789 0.992077 0.99139 0.990726 0.990082 0.989454 0.98884 0.988236 0.98764 0.987053 0.986471 0.985893 0.98532 0.98475 0.984182 0.983615 0.983049 0.982483 0.981917 0.981349 0.980779 0.980208 0.979633 0.979056 0.978475 0.97789 0.977301 0.976708 0.97611 0.975507 0.974899 0.974287 0.974287 
1.01716 1.01714 1.01714 1.01713 1.01713 1.01713 1.01712 1.01711 1.0171 1.01709 1.01707 1.01706 1.01703 1.01702 1.01699 1.01697 1.01694 1.01691 1.01688 1.01684 1.0168 1.01676 1.01671 1.01666 1.0166 1.01653 1.01646 1.01638 1.0163 1.0162 1.0161 1.01599 1.01589 1.0158 1.01572 1.01569 1.0157 1.01575 1.01585 1.01595 1.01598 1.01583 1.01535 1.01444 1.01303 1.01118 1.00905 1.00689 1.00492 1.00328 1.00205 1.0012 1.00066 1.00034 1.00016 1.00007 1.00003 1.00001 1 1 1 1 1 1 1 1 1 1 1 1 1 1 1 1 1 1 0.999999 0.999997 0.999992 0.999983 0.999964 0.999929 0.999868 0.999767 0.999613 0.999389 0.999081 0.998681 0.998187 0.997603 0.996945 0.996231 0.995482 0.994718 0.993956 0.99321 0.992485 0.991784 0.991107 0.990452 0.989816 0.989194 0.988585 0.987985 0.987394 0.98681 0.98623 0.985656 0.985085 0.984516 0.98395 0.983384 0.98282 0.982254 0.981689 0.981122 0.980553 0.979982 0.979408 0.978831 0.978251 0.977667 0.977079 0.976487 0.97589 0.975288 0.974682 0.974682 
1.01712 1.0171 1.0171 1.01709 1.01709 1.01709 1.01708 1.01707 1.01706 1.01705 1.01703 1.01702 1.017 1.01698 1.01695 1.01693 1.0169 1.01687 1.01683 1.0168 1.01676 1.01671 1.01666 1.01661 1.01655 1.01648 1.01641 1.01633 1.01624 1.01615 1.01605 1.01595 1.01586 1.01578 1.01574 1.01573 1.01577 1.01587 1.01599 1.01611 1.01614 1.01598 1.01549 1.01455 1.01311 1.01124 1.00909 1.00692 1.00493 1.00329 1.00205 1.0012 1.00066 1.00034 1.00016 1.00007 1.00003 1.00001 1 1 1 1 1 1 1 1 1 1 1 1 1 1 1 1 1 1 0.999999 0.999998 0.999995 0.999988 0.999974 0.999948 0.999902 0.999823 0.9997 0.999515 0.999256 0.99891 0.998472 0.997943 0.997332 0.996654 0.995929 0.995178 0.994418 0.993665 0.992929 0.992214 0.991524 0.990856 0.990209 0.989578 0.988962 0.988357 0.987762 0.987174 0.986593 0.986017 0.985444 0.984875 0.984309 0.983744 0.98318 0.982616 0.982052 0.981488 0.980921 0.980354 0.979784 0.979211 0.978635 0.978056 0.977473 0.976886 0.976295 0.9757 0.9751 0.9751 
1.01708 1.01706 1.01706 1.01705 1.01705 1.01704 1.01704 1.01703 1.01702 1.01701 1.01699 1.01697 1.01695 1.01694 1.01691 1.01689 1.01686 1.01683 1.01679 1.01675 1.01671 1.01667 1.01662 1.01656 1.0165 1.01643 1.01636 1.01628 1.01619 1.01609 1.016 1.01591 1.01584 1.01579 1.01577 1.0158 1.01588 1.016 1.01614 1.01627 1.0163 1.01612 1.01561 1.01465 1.01318 1.01129 1.00912 1.00693 1.00494 1.00329 1.00206 1.0012 1.00066 1.00034 1.00016 1.00007 1.00003 1.00001 1 1 1 1 1 1 1 1 1 1 1 1 1 1 1 1 1 1 0.999999 0.999999 0.999997 0.999992 0.999982 0.999963 0.999929 0.999869 0.999772 0.999624 0.99941 0.999118 0.998737 0.998266 0.997709 0.997077 0.996387 0.995657 0.994907 0.994154 0.993409 0.992683 0.991978 0.991297 0.990637 0.989996 0.989371 0.988759 0.988159 0.987567 0.986983 0.986404 0.985831 0.985261 0.984694 0.984129 0.983566 0.983003 0.982441 0.981879 0.981315 0.980751 0.980184 0.979615 0.979044 0.97847 0.977892 0.977311 0.976726 0.976137 0.975543 0.975543 
1.01704 1.01701 1.01701 1.01701 1.01701 1.017 1.017 1.01699 1.01697 1.01696 1.01695 1.01693 1.01691 1.01689 1.01687 1.01684 1.01681 1.01678 1.01675 1.01671 1.01666 1.01662 1.01657 1.01651 1.01645 1.01638 1.0163 1.01622 1.01613 1.01604 1.01596 1.01589 1.01583 1.01581 1.01583 1.01589 1.016 1.01614 1.0163 1.01643 1.01645 1.01626 1.01572 1.01473 1.01325 1.01133 1.00915 1.00695 1.00495 1.0033 1.00206 1.0012 1.00066 1.00034 1.00016 1.00007 1.00003 1.00001 1 1 1 1 1 1 1 1 1 1 1 1 1 1 1 1 1 1 1 0.999999 0.999998 0.999995 0.999988 0.999975 0.99995 0.999905 0.999831 0.999715 0.999543 0.999301 0.998978 0.998568 0.998071 0.997492 0.996846 0.996148 0.995417 0.994672 0.993925 0.99319 0.992473 0.991778 0.991104 0.99045 0.989815 0.989195 0.988588 0.987991 0.987403 0.986821 0.986245 0.985674 0.985107 0.984542 0.983979 0.983418 0.982857 0.982297 0.981736 0.981175 0.980612 0.980047 0.979481 0.978911 0.978339 0.977764 0.977185 0.976602 0.976016 0.976016 
1.01699 1.01697 1.01697 1.01697 1.01696 1.01696 1.01695 1.01694 1.01693 1.01692 1.0169 1.01689 1.01687 1.01685 1.01682 1.0168 1.01677 1.01673 1.0167 1.01666 1.01661 1.01657 1.01651 1.01645 1.01639 1.01632 1.01624 1.01616 1.01608 1.016 1.01593 1.01588 1.01585 1.01586 1.01591 1.01601 1.01614 1.0163 1.01647 1.01659 1.0166 1.01638 1.01582 1.01481 1.0133 1.01136 1.00917 1.00696 1.00496 1.0033 1.00206 1.0012 1.00066 1.00034 1.00016 1.00007 1.00003 1.00001 1 1 1 1 1 1 1 1 1 1 1 1 1 1 1 1 1 1 1 0.999999 0.999999 0.999997 0.999992 0.999983 0.999966 0.999933 0.999879 0.99979 0.999655 0.99946 0.999192 0.998843 0.998408 0.99789 0.997296 0.996641 0.995941 0.995212 0.994473 0.993735 0.993009 0.992301 0.991613 0.990946 0.990299 0.989668 0.989053 0.988449 0.987856 0.98727 0.986692 0.986119 0.98555 0.984985 0.984423 0.983863 0.983304 0.982745 0.982187 0.981629 0.98107 0.980509 0.979947 0.979383 0.978816 0.978247 0.977675 0.977099 0.97652 0.97652 
1.01695 1.01692 1.01692 1.01692 1.01692 1.01691 1.0169 1.01689 1.01688 1.01687 1.01685 1.01684 1.01682 1.0168 1.01677 1.01675 1.01672 1.01668 1.01665 1.01661 1.01656 1.01651 1.01646 1.0164 1.01633 1.01626 1.01618 1.01611 1.01603 1.01597 1.01592 1.01589 1.01589 1.01594 1.01602 1.01615 1.0163 1.01647 1.01663 1.01675 1.01673 1.0165 1.01591 1.01487 1.01335 1.0114 1.00919 1.00698 1.00496 1.00331 1.00206 1.00121 1.00066 1.00034 1.00016 1.00007 1.00003 1.00001 1 1 1 1 1 1 1 1 1 1 1 1 1 1 1 1 1 1 1 1 0.999999 0.999998 0.999995 0.999989 0.999977 0.999955 0.999915 0.999849 0.999746 0.999593 0.999377 0.999087 0.998716 0.998262 0.997729 0.997126 0.996467 0.995768 0.995045 0.994313 0.993584 0.992867 0.992167 0.991487 0.990826 0.990184 0.989558 0.988946 0.988346 0.987755 0.987173 0.986597 0.986027 0.985461 0.984899 0.984339 0.983782 0.983226 0.98267 0.982115 0.981559 0.981003 0.980446 0.979887 0.979327 0.978764 0.978199 0.977631 0.97706 0.97706 