# vtk DataFile Version 3.0
LBM simulation at step 110
ASCII
DATASET STRUCTURED_POINTS
DIMENSIONS 256 256 1
ORIGIN 0 0 0
SPACING 1 1 1
POINT_DATA 65536
SCALARS density float
LOOKUP_TABLE default
0.74028 1.08625 1.13292 1.09078 1.08264 1.09151 1.09332 1.09154 1.09096 1.09111 1.09104 1.09083 1.09066 1.09053 1.0904 1.09027 1.09014 1.09003 1.08992 1.08982 1.08971 1.08962 1.08952 1.08943 1.08934 1.08926 1.08917 1.08909 1.089 1.08892 1.08883 1.08874 1.08866 1.08857 1.08848 1.08839 1.08829 1.0882 1.08809 1.08799 1.08788 1.08777 1.08765 1.08752 1.08739 1.08724 1.08709 1.08692 1.08674 1.08654 1.08634 1.08615 1.08595 1.08573 1.08545 1.08498 1.08413 1.08261 1.08002 1.07599 1.0702 1.0626 1.05348 1.04347 1.03349 1.02438 1.01679 1.01095 1.00678 1.00399 1.00225 1.00121 1.00062 1.0003 1.00014 1.00006 1.00003 1.00001 1 1 1 1 1 1 1 1 1 1 1 1 1 1 1 1 1 1 1 1 1 1 1 1 1 1 1 1 1 1 1 1 1 1 1 1 1 1 1 1 1 1 1 1 1 1 1 1 1 1 1 1 1 1 1 1 1 1 1 1 1 1 1 1 1 1 1 1 1 1 1 1 1 1 1 1 1 1 1 1 1 1 1 1 1 1 1 1 1 1 1 1 1 1 1 1 1 1 1 1 0.999999 0.999998 0.999996 0.999991 0.99998 0.99996 0.999922 0.999854 0.99974 0.999557 0.999275 0.998861 0.998281 0.997504 0.996505 0.995274 0.993816 0.992153 0.990321 0.988367 0.986346 0.98431 0.982305 0.980369 0.978527 0.97679 0.975159 0.973626 0.972177 0.970797 0.96947 0.968183 0.966924 0.965686 0.964464 0.963253 0.962053 0.96086 0.959673 0.95849 0.957311 0.956132 0.954954 0.953773 0.952589 0.951399 0.950202 0.948996 0.94778 0.946552 0.945308 0.944048 0.942769 0.941468 0.940141 0.938786 0.937399 0.935975 0.934508 0.932994 0.931423 0.929788 0.928077 0.926278 0.924374 0.922342 0.920155 0.917784 0.915176 0.912215 0.908816 0.905082 0.900572 0.893203 0.883856 0.879383 0.856935 0.698604 
1.1293 1.0627 1.05779 1.09291 1.09638 1.09094 1.0901 1.09126 1.09138 1.09102 1.09083 1.09074 1.09061 1.09048 1.09034 1.09023 1.0901 1.09 1.08988 1.08978 1.08967 1.08959 1.08948 1.0894 1.0893 1.08922 1.08913 1.08904 1.08895 1.08887 1.08878 1.08869 1.0886 1.08851 1.08842 1.08833 1.08823 1.08813 1.08802 1.08792 1.0878 1.08768 1.08756 1.08742 1.08728 1.08713 1.08696 1.08679 1.08659 1.08639 1.08617 1.08594 1.0857 1.08541 1.085 1.08437 1.08333 1.08163 1.07898 1.07506 1.06965 1.06264 1.0542 1.04479 1.03516 1.02612 1.01835 1.01219 1.00769 1.00461 1.00263 1.00144 1.00075 1.00037 1.00018 1.00008 1.00004 1.00001 1.00001 1 1 1 1 1 1 1 1 1 1 1 1 1 1 1 1 1 1 1 1 1 1 1 1 1 1 1 1 1 1 1 1 1 1 1 1 1 1 1 1 1 1 1 1 1 1 1 1 1 1 1 1 1 1 1 1 1 1 1 1 1 1 1 1 1 1 1 1 1 1 1 1 1 1 1 1 1 1 1 1 1 1 1 1 1 1 1 1 1 1 1 1 1 1 1 1 1 1 1 0.999999 0.999998 0.999995 0.999988 0.999976 0.999952 0.999908 0.999831 0.999703 0.999501 0.999195 0.998753 0.998141 0.997333 0.996307 0.995057 0.993591 0.991931 0.990115 0.988187 0.986198 0.984197 0.982227 0.980321 0.978503 0.976782 0.97516 0.973631 0.972181 0.970797 0.969465 0.968173 0.966909 0.965668 0.964442 0.963229 0.962027 0.960832 0.959643 0.958458 0.957276 0.956096 0.954915 0.953731 0.952544 0.951351 0.950151 0.948942 0.947722 0.94649 0.945242 0.943977 0.942692 0.941385 0.940052 0.93869 0.937294 0.93586 0.934383 0.932856 0.931271 0.929619 0.927888 0.926065 0.924132 0.922067 0.91984 0.917403 0.914711 0.911732 0.908291 0.903945 0.898856 0.894015 0.885871 0.862553 0.839235 0.839235 
1.13849 1.06681 1.07563 1.0952 1.09218 1.08966 1.09074 1.09136 1.09104 1.09082 1.09075 1.09067 1.09053 1.09041 1.09028 1.09018 1.09005 1.08995 1.08983 1.08974 1.08962 1.08954 1.08943 1.08936 1.08925 1.08917 1.08908 1.089 1.0889 1.08882 1.08872 1.08864 1.08854 1.08845 1.08836 1.08826 1.08816 1.08805 1.08794 1.08783 1.08771 1.08759 1.08745 1.08731 1.08716 1.087 1.08682 1.08663 1.08642 1.0862 1.08595 1.08569 1.08538 1.08501 1.08451 1.08376 1.08261 1.08085 1.07824 1.07452 1.06948 1.06298 1.05507 1.04611 1.0367 1.02766 1.01969 1.01325 1.00845 1.00512 1.00295 1.00162 1.00085 1.00043 1.00021 1.00009 1.00004 1.00002 1.00001 1 1 1 1 1 1 1 1 1 1 1 1 1 1 1 1 1 1 1 1 1 1 1 1 1 1 1 1 1 1 1 1 1 1 1 1 1 1 1 1 1 1 1 1 1 1 1 1 1 1 1 1 1 1 1 1 1 1 1 1 1 1 1 1 1 1 1 1 1 1 1 1 1 1 1 1 1 1 1 1 1 1 1 1 1 1 1 1 1 1 1 1 1 1 1 1 1 1 1 0.999999 0.999997 0.999994 0.999987 0.999973 0.999946 0.999898 0.999815 0.999678 0.999462 0.999138 0.998675 0.99804 0.997207 0.996159 0.994892 0.993416 0.991756 0.989948 0.988038 0.986072 0.984099 0.982156 0.980277 0.97848 0.976777 0.975167 0.973644 0.972197 0.970813 0.969479 0.968183 0.966916 0.965672 0.964443 0.963228 0.962023 0.960826 0.959636 0.958449 0.957266 0.956083 0.9549 0.953715 0.952526 0.951331 0.950128 0.948917 0.947695 0.946459 0.945209 0.943941 0.942653 0.941343 0.940006 0.93864 0.93724 0.935802 0.93432 0.932788 0.931197 0.92954 0.927803 0.925975 0.924035 0.921964 0.919737 0.917311 0.914615 0.911605 0.908312 0.904416 0.899153 0.893454 0.88948 0.8798 0.863234 0.863234 
1.05531 1.09113 1.10396 1.08637 1.08626 1.09162 1.09179 1.09063 1.09057 1.09078 1.09069 1.09054 1.09042 1.09033 1.09021 1.09011 1.08998 1.08989 1.08977 1.08969 1.08957 1.08949 1.08938 1.08931 1.0892 1.08912 1.08902 1.08894 1.08884 1.08876 1.08866 1.08858 1.08848 1.08839 1.08829 1.08819 1.08808 1.08797 1.08786 1.08774 1.08762 1.08748 1.08734 1.0872 1.08704 1.08686 1.08667 1.08647 1.08624 1.086 1.08573 1.08543 1.08508 1.08465 1.08408 1.08325 1.08204 1.08026 1.07769 1.07414 1.06938 1.06328 1.05583 1.04726 1.0381 1.02908 1.02096 1.01426 1.00919 1.00562 1.00327 1.00181 1.00096 1.00048 1.00023 1.00011 1.00005 1.00002 1.00001 1 1 1 1 1 1 1 1 1 1 1 1 1 1 1 1 1 1 1 1 1 1 1 1 1 1 1 1 1 1 1 1 1 1 1 1 1 1 1 1 1 1 1 1 1 1 1 1 1 1 1 1 1 1 1 1 1 1 1 1 1 1 1 1 1 1 1 1 1 1 1 1 1 1 1 1 1 1 1 1 1 1 1 1 1 1 1 1 1 1 1 1 1 1 1 1 1 1 1 0.999999 0.999997 0.999993 0.999986 0.999971 0.999942 0.999891 0.999802 0.999657 0.999431 0.999093 0.998613 0.997961 0.99711 0.996047 0.994768 0.993287 0.991628 0.98983 0.987934 0.985989 0.984037 0.982117 0.980258 0.978478 0.976788 0.975187 0.97367 0.972225 0.970841 0.969506 0.968209 0.96694 0.965693 0.964463 0.963246 0.96204 0.960841 0.959649 0.958462 0.957277 0.956093 0.954909 0.953722 0.952532 0.951335 0.950132 0.948919 0.947696 0.946459 0.945208 0.943939 0.94265 0.941339 0.940002 0.938635 0.937235 0.935798 0.934317 0.932786 0.931199 0.929545 0.927815 0.925996 0.924073 0.922022 0.919817 0.917439 0.914854 0.911931 0.908591 0.905119 0.901301 0.895251 0.888063 0.884951 0.88115 0.88115 
1.09478 1.09456 1.087 1.08708 1.09212 1.09118 1.09001 1.09045 1.09078 1.09063 1.09047 1.09042 1.09033 1.09025 1.09012 1.09003 1.08991 1.08983 1.0897 1.08963 1.08951 1.08944 1.08932 1.08925 1.08914 1.08907 1.08896 1.08889 1.08878 1.0887 1.0886 1.08851 1.08841 1.08832 1.08821 1.08811 1.088 1.08789 1.08777 1.08765 1.08752 1.08738 1.08724 1.08708 1.08691 1.08673 1.08653 1.08631 1.08608 1.08582 1.08553 1.0852 1.08481 1.08433 1.08368 1.08278 1.0815 1.07969 1.07717 1.07376 1.06929 1.06359 1.05658 1.04839 1.03945 1.03046 1.02219 1.01525 1.00991 1.0061 1.00357 1.00199 1.00106 1.00054 1.00026 1.00012 1.00005 1.00002 1.00001 1 1 1 1 1 1 1 1 1 1 1 1 1 1 1 1 1 1 1 1 1 1 1 1 1 1 1 1 1 1 1 1 1 1 1 1 1 1 1 1 1 1 1 1 1 1 1 1 1 1 1 1 1 1 1 1 1 1 1 1 1 1 1 1 1 1 1 1 1 1 1 1 1 1 1 1 1 1 1 1 1 1 1 1 1 1 1 1 1 1 1 1 1 1 1 1 1 1 0.999999 0.999999 0.999997 0.999993 0.999985 0.999969 0.999939 0.999885 0.999792 0.999642 0.999407 0.99906 0.998568 0.997902 0.997038 0.995963 0.994678 0.993194 0.99154 0.989751 0.98787 0.985943 0.984011 0.982111 0.980269 0.978504 0.976824 0.97523 0.973716 0.972272 0.970888 0.969551 0.968251 0.96698 0.965732 0.9645 0.963282 0.962075 0.960875 0.959682 0.958494 0.957308 0.956124 0.954939 0.953751 0.95256 0.951364 0.95016 0.948947 0.947723 0.946487 0.945236 0.943968 0.94268 0.94137 0.940035 0.938671 0.937274 0.935841 0.934366 0.932843 0.931265 0.929625 0.927912 0.926114 0.924219 0.922212 0.920065 0.917747 0.915254 0.912577 0.909524 0.906004 0.902637 0.899174 0.893809 0.889177 0.886557 0.886557 
1.09667 1.08982 1.08786 1.09248 1.09099 1.08931 1.09032 1.09078 1.09047 1.09033 1.09035 1.09032 1.09021 1.09013 1.09002 1.08995 1.08982 1.08976 1.08963 1.08956 1.08944 1.08938 1.08925 1.08919 1.08907 1.08901 1.08889 1.08882 1.08871 1.08864 1.08853 1.08845 1.08834 1.08825 1.08814 1.08803 1.08792 1.08781 1.08768 1.08756 1.08742 1.08728 1.08713 1.08696 1.08679 1.0866 1.08639 1.08616 1.08591 1.08563 1.08532 1.08496 1.08453 1.084 1.08329 1.08232 1.08099 1.07915 1.07669 1.07344 1.06924 1.06391 1.05731 1.04948 1.04076 1.0318 1.02339 1.01622 1.01061 1.00657 1.00387 1.00216 1.00116 1.00059 1.00029 1.00013 1.00006 1.00003 1.00001 1 1 1 1 1 1 1 1 1 1 1 1 1 1 1 1 1 1 1 1 1 1 1 1 1 1 1 1 1 1 1 1 1 1 1 1 1 1 1 1 1 1 1 1 1 1 1 1 1 1 1 1 1 1 1 1 1 1 1 1 1 1 1 1 1 1 1 1 1 1 1 1 1 1 1 1 1 1 1 1 1 1 1 1 1 1 1 1 1 1 1 1 1 1 1 1 1 1 0.999999 0.999999 0.999997 0.999993 0.999984 0.999968 0.999937 0.999881 0.999786 0.999632 0.999392 0.999038 0.998537 0.997862 0.99699 0.995909 0.994619 0.993136 0.991487 0.989708 0.987842 0.985932 0.984018 0.982134 0.980308 0.978555 0.976884 0.975296 0.973784 0.972341 0.970955 0.969616 0.968314 0.96704 0.96579 0.964556 0.963337 0.962128 0.960928 0.959734 0.958545 0.957359 0.956174 0.954988 0.953801 0.95261 0.951413 0.95021 0.948997 0.947775 0.946539 0.94529 0.944023 0.942738 0.941431 0.9401 0.938741 0.93735 0.935924 0.934459 0.932947 0.931384 0.929762 0.928073 0.926307 0.92445 0.92249 0.920418 0.918203 0.915801 0.913238 0.910568 0.907518 0.903948 0.900732 0.897595 0.893949 0.891055 0.891055 
1.0879 1.09033 1.0918 1.09063 1.08932 1.09042 1.09066 1.0902 1.09017 1.0903 1.09025 1.09016 1.09007 1.09003 1.08992 1.08985 1.08973 1.08967 1.08955 1.08949 1.08936 1.08931 1.08918 1.08913 1.08901 1.08894 1.08883 1.08876 1.08865 1.08857 1.08846 1.08838 1.08827 1.08817 1.08806 1.08796 1.08784 1.08772 1.08759 1.08746 1.08732 1.08718 1.08702 1.08685 1.08666 1.08647 1.08625 1.08601 1.08574 1.08545 1.08511 1.08472 1.08425 1.08366 1.08289 1.08187 1.08049 1.07866 1.07626 1.07317 1.06923 1.06425 1.05804 1.05055 1.04204 1.03311 1.02457 1.01716 1.0113 1.00703 1.00415 1.00233 1.00125 1.00064 1.00031 1.00014 1.00006 1.00003 1.00001 1 1 1 1 1 1 1 1 1 1 1 1 1 1 1 1 1 1 1 1 1 1 1 1 1 1 1 1 1 1 1 1 1 1 1 1 1 1 1 1 1 1 1 1 1 1 1 1 1 1 1 1 1 1 1 1 1 1 1 1 1 1 1 1 1 1 1 1 1 1 1 1 1 1 1 1 1 1 1 1 1 1 1 1 1 1 1 1 1 1 1 1 1 1 1 1 1 1 0.999999 0.999999 0.999997 0.999993 0.999984 0.999968 0.999936 0.99988 0.999783 0.999627 0.999384 0.999026 0.998522 0.997842 0.996966 0.995882 0.994592 0.993112 0.99147 0.989701 0.987848 0.985953 0.984055 0.982187 0.980374 0.978631 0.976968 0.975383 0.973873 0.97243 0.971042 0.969701 0.968396 0.967121 0.965868 0.964632 0.963411 0.962201 0.961 0.959805 0.958616 0.957429 0.956244 0.955058 0.95387 0.952679 0.951483 0.950281 0.949069 0.947848 0.946614 0.945367 0.944103 0.942822 0.941519 0.940193 0.93884 0.937458 0.936041 0.934587 0.93309 0.931545 0.929945 0.928284 0.926552 0.924741 0.922837 0.920828 0.918715 0.91647 0.914033 0.911469 0.908879 0.905973 0.902824 0.899941 0.897016 0.894334 0.894334 
1.09026 1.09051 1.09043 1.08975 1.09034 1.09053 1.09001 1.09006 1.09021 1.09015 1.09005 1.09003 1.08996 1.08991 1.08981 1.08975 1.08964 1.08959 1.08946 1.08941 1.08929 1.08924 1.08911 1.08906 1.08893 1.08888 1.08876 1.08869 1.08858 1.0885 1.08839 1.0883 1.08819 1.0881 1.08798 1.08788 1.08775 1.08763 1.0875 1.08737 1.08722 1.08707 1.08691 1.08673 1.08654 1.08633 1.0861 1.08585 1.08557 1.08525 1.08489 1.08447 1.08396 1.08332 1.08251 1.08143 1.08003 1.0782 1.07588 1.07295 1.06927 1.06462 1.05877 1.0516 1.04329 1.03438 1.02572 1.01808 1.01197 1.00748 1.00443 1.0025 1.00134 1.00069 1.00033 1.00016 1.00007 1.00003 1.00001 1 1 1 1 1 1 1 1 1 1 1 1 1 1 1 1 1 1 1 1 1 1 1 1 1 1 1 1 1 1 1 1 1 1 1 1 1 1 1 1 1 1 1 1 1 1 1 1 1 1 1 1 1 1 1 1 1 1 1 1 1 1 1 1 1 1 1 1 1 1 1 1 1 1 1 1 1 1 1 1 1 1 1 1 1 1 1 1 1 1 1 1 1 1 1 1 1 1 0.999999 0.999999 0.999997 0.999993 0.999984 0.999968 0.999936 0.99988 0.999783 0.999627 0.999384 0.999026 0.998521 0.997841 0.996965 0.995883 0.994596 0.993122 0.991487 0.989729 0.987889 0.986007 0.984123 0.982268 0.980465 0.978731 0.977074 0.975492 0.973983 0.972539 0.97115 0.969806 0.968498 0.96722 0.965965 0.964728 0.963505 0.962294 0.961091 0.959896 0.958705 0.957518 0.956332 0.955147 0.953959 0.952769 0.951573 0.950372 0.949162 0.947942 0.946711 0.945466 0.944206 0.942928 0.941631 0.940311 0.938966 0.937592 0.936187 0.934746 0.933265 0.931739 0.930164 0.928532 0.926836 0.92507 0.923227 0.92129 0.919252 0.917126 0.914888 0.91247 0.90997 0.907467 0.904788 0.902078 0.899494 0.897069 0.897069 
1.09083 1.09011 1.08991 1.09018 1.09033 1.08996 1.08998 1.09013 1.09002 1.08995 1.08994 1.08992 1.08984 1.08979 1.0897 1.08965 1.08954 1.0895 1.08938 1.08933 1.08921 1.08916 1.08903 1.08898 1.08886 1.08881 1.08868 1.08862 1.0885 1.08843 1.08831 1.08823 1.08811 1.08802 1.0879 1.08779 1.08767 1.08754 1.08741 1.08727 1.08712 1.08696 1.08679 1.08661 1.08641 1.08619 1.08595 1.08568 1.08538 1.08505 1.08466 1.08421 1.08367 1.08299 1.08213 1.08102 1.07959 1.07778 1.07554 1.07277 1.06933 1.06501 1.05951 1.05264 1.04451 1.03563 1.02684 1.01898 1.01262 1.00792 1.0047 1.00265 1.00142 1.00073 1.00036 1.00017 1.00007 1.00003 1.00001 1 1 1 1 1 1 1 1 1 1 1 1 1 1 1 1 1 1 1 1 1 1 1 1 1 1 1 1 1 1 1 1 1 1 1 1 1 1 1 1 1 1 1 1 1 1 1 1 1 1 1 1 1 1 1 1 1 1 1 1 1 1 1 1 1 1 1 1 1 1 1 1 1 1 1 1 1 1 1 1 1 1 1 1 1 1 1 1 1 1 1 1 1 1 1 1 1 1 0.999999 0.999999 0.999997 0.999993 0.999985 0.999968 0.999937 0.999882 0.999786 0.999631 0.999391 0.999035 0.998533 0.997858 0.996987 0.99591 0.994631 0.993164 0.991539 0.989792 0.987964 0.986094 0.984222 0.982377 0.980584 0.978856 0.977203 0.975623 0.974114 0.972668 0.971277 0.96993 0.96862 0.967339 0.966081 0.964842 0.963618 0.962405 0.961201 0.960005 0.958814 0.957626 0.95644 0.955254 0.954067 0.952877 0.951683 0.950482 0.949274 0.948056 0.946828 0.945586 0.94433 0.943057 0.941765 0.940452 0.939114 0.937751 0.936357 0.93493 0.933466 0.931961 0.93041 0.928808 0.927149 0.925427 0.923637 0.921775 0.919825 0.917781 0.91567 0.913469 0.911138 0.908771 0.906382 0.90393 0.901535 0.899296 0.899296 
1.08989 1.09002 1.09008 1.09008 1.08992 1.08991 1.09001 1.08992 1.08985 1.08987 1.08983 1.08978 1.08971 1.08968 1.08959 1.08955 1.08944 1.0894 1.08929 1.08925 1.08912 1.08908 1.08895 1.08891 1.08878 1.08873 1.08861 1.08855 1.08843 1.08835 1.08824 1.08815 1.08803 1.08794 1.08782 1.0877 1.08758 1.08745 1.08731 1.08717 1.08701 1.08685 1.08667 1.08648 1.08627 1.08604 1.08579 1.08551 1.0852 1.08484 1.08444 1.08396 1.08338 1.08266 1.08176 1.08061 1.07917 1.07739 1.07523 1.07263 1.06943 1.06541 1.06024 1.05367 1.04571 1.03686 1.02794 1.01986 1.01326 1.00834 1.00496 1.0028 1.00151 1.00077 1.00038 1.00018 1.00008 1.00003 1.00001 1.00001 1 1 1 1 1 1 1 1 1 1 1 1 1 1 1 1 1 1 1 1 1 1 1 1 1 1 1 1 1 1 1 1 1 1 1 1 1 1 1 1 1 1 1 1 1 1 1 1 1 1 1 1 1 1 1 1 1 1 1 1 1 1 1 1 1 1 1 1 1 1 1 1 1 1 1 1 1 1 1 1 1 1 1 1 1 1 1 1 1 1 1 1 1 1 1 1 1 1 0.999999 0.999997 0.999993 0.999985 0.999969 0.999939 0.999885 0.999792 0.99964 0.999404 0.999054 0.998559 0.997892 0.99703 0.995963 0.994694 0.993239 0.991625 0.98989 0.988073 0.986215 0.984352 0.982516 0.980729 0.979007 0.977355 0.975777 0.974267 0.972819 0.971424 0.970074 0.968761 0.967477 0.966217 0.964976 0.963749 0.962535 0.96133 0.960133 0.958941 0.957753 0.956567 0.955381 0.954194 0.953005 0.951811 0.950612 0.949406 0.94819 0.946964 0.945726 0.944474 0.943206 0.94192 0.940614 0.939285 0.937932 0.93655 0.935137 0.933691 0.932206 0.930679 0.929107 0.927484 0.925806 0.924067 0.922264 0.920398 0.918452 0.916428 0.914353 0.912208 0.909991 0.90776 0.90552 0.903293 0.901185 0.901185 
1.0899 1.08993 1.08991 1.08986 1.08984 1.08989 1.08983 1.08977 1.08977 1.08975 1.08969 1.08966 1.0896 1.08957 1.08948 1.08945 1.08934 1.08931 1.08919 1.08916 1.08903 1.089 1.08887 1.08883 1.0887 1.08865 1.08853 1.08847 1.08835 1.08827 1.08816 1.08807 1.08795 1.08785 1.08773 1.08761 1.08748 1.08735 1.08721 1.08706 1.0869 1.08673 1.08655 1.08635 1.08613 1.08589 1.08563 1.08534 1.08501 1.08464 1.0842 1.0837 1.08308 1.08233 1.08139 1.08022 1.07878 1.07704 1.07497 1.07253 1.06957 1.06584 1.06099 1.05469 1.0469 1.03805 1.02901 1.02071 1.01387 1.00874 1.00521 1.00294 1.00158 1.00081 1.0004 1.00019 1.00008 1.00004 1.00001 1.00001 1 1 1 1 1 1 1 1 1 1 1 1 1 1 1 1 1 1 1 1 1 1 1 1 1 1 1 1 1 1 1 1 1 1 1 1 1 1 1 1 1 1 1 1 1 1 1 1 1 1 1 1 1 1 1 1 1 1 1 1 1 1 1 1 1 1 1 1 1 1 1 1 1 1 1 1 1 1 1 1 1 1 1 1 1 1 1 1 1 1 1 1 1 1 1 1 1 1 0.999999 0.999997 0.999994 0.999986 0.999971 0.999942 0.99989 0.9998 0.999653 0.999423 0.999081 0.998597 0.997942 0.997094 0.996041 0.994786 0.993345 0.991745 0.990022 0.988216 0.986368 0.984514 0.982685 0.980903 0.979183 0.977533 0.975953 0.974441 0.97299 0.971592 0.970239 0.968922 0.967636 0.966373 0.965129 0.963901 0.962685 0.961478 0.96028 0.959087 0.957899 0.956712 0.955527 0.95434 0.953152 0.951959 0.950761 0.949557 0.948344 0.947121 0.945886 0.944639 0.943376 0.942096 0.940797 0.939477 0.938134 0.936764 0.935366 0.933936 0.932472 0.93097 0.929426 0.927837 0.9262 0.92451 0.922764 0.920961 0.919103 0.917179 0.915197 0.913175 0.911104 0.909001 0.906898 0.90481 0.902809 0.902809 
1.08987 1.08977 1.08975 1.08975 1.08976 1.08973 1.08968 1.08969 1.08966 1.08962 1.08958 1.08956 1.08949 1.08946 1.08937 1.08934 1.08924 1.08921 1.0891 1.08907 1.08895 1.08891 1.08879 1.08874 1.08862 1.08857 1.08845 1.08839 1.08827 1.08819 1.08807 1.08798 1.08786 1.08776 1.08764 1.08752 1.08739 1.08725 1.0871 1.08695 1.08679 1.08661 1.08642 1.08621 1.08599 1.08574 1.08547 1.08516 1.08482 1.08442 1.08397 1.08344 1.08279 1.08201 1.08104 1.07985 1.07841 1.07671 1.07474 1.07246 1.06974 1.0663 1.06174 1.0557 1.04806 1.03923 1.03005 1.02154 1.01446 1.00913 1.00545 1.00308 1.00166 1.00085 1.00041 1.00019 1.00009 1.00004 1.00001 1.00001 1 1 1 1 1 1 1 1 1 1 1 1 1 1 1 1 1 1 1 1 1 1 1 1 1 1 1 1 1 1 1 1 1 1 1 1 1 1 1 1 1 1 1 1 1 1 1 1 1 1 1 1 1 1 1 1 1 1 1 1 1 1 1 1 1 1 1 1 1 1 1 1 1 1 1 1 1 1 1 1 1 1 1 1 1 1 1 1 1 1 1 1 1 1 1 1 1 1 0.999999 0.999997 0.999994 0.999987 0.999973 0.999945 0.999896 0.99981 0.999669 0.999447 0.999117 0.998646 0.998007 0.997176 0.996142 0.994905 0.993482 0.991897 0.990188 0.988393 0.986555 0.984708 0.982884 0.981105 0.979386 0.977735 0.976153 0.974638 0.973184 0.971782 0.970424 0.969104 0.967814 0.966548 0.965302 0.964071 0.962853 0.961646 0.960446 0.959253 0.958063 0.956877 0.955691 0.954505 0.953317 0.952126 0.95093 0.949727 0.948516 0.947297 0.946066 0.944823 0.943565 0.942292 0.941 0.939689 0.938356 0.936999 0.935615 0.934202 0.932757 0.931278 0.929762 0.928205 0.926605 0.92496 0.923267 0.921523 0.919732 0.917893 0.916003 0.914072 0.912112 0.910125 0.908129 0.906148 0.904233 0.904233 
1.08968 1.08964 1.08965 1.08964 1.08962 1.0896 1.08959 1.08957 1.08953 1.08951 1.08947 1.08944 1.08938 1.08935 1.08927 1.08924 1.08914 1.08911 1.089 1.08897 1.08886 1.08882 1.0887 1.08866 1.08854 1.08849 1.08836 1.0883 1.08818 1.08811 1.08798 1.0879 1.08777 1.08767 1.08754 1.08742 1.08729 1.08715 1.087 1.08684 1.08667 1.08649 1.08629 1.08608 1.08584 1.08558 1.0853 1.08498 1.08462 1.08421 1.08373 1.08317 1.0825 1.08169 1.08069 1.07949 1.07806 1.07642 1.07455 1.07244 1.06995 1.06678 1.06251 1.05671 1.04921 1.04038 1.03107 1.02234 1.01504 1.00951 1.00567 1.00321 1.00172 1.00088 1.00043 1.0002 1.00009 1.00004 1.00002 1.00001 1 1 1 1 1 1 1 1 1 1 1 1 1 1 1 1 1 1 1 1 1 1 1 1 1 1 1 1 1 1 1 1 1 1 1 1 1 1 1 1 1 1 1 1 1 1 1 1 1 1 1 1 1 1 1 1 1 1 1 1 1 1 1 1 1 1 1 1 1 1 1 1 1 1 1 1 1 1 1 1 1 1 1 1 1 1 1 1 1 1 1 1 1 1 1 1 1 1 0.999999 0.999998 0.999995 0.999988 0.999975 0.999949 0.999903 0.999822 0.999688 0.999476 0.999159 0.998705 0.998085 0.997276 0.996265 0.99505 0.993647 0.992081 0.990387 0.988605 0.986775 0.984934 0.983114 0.981336 0.979616 0.977963 0.976378 0.974859 0.973399 0.971993 0.970631 0.969306 0.968013 0.966743 0.965494 0.964261 0.963042 0.961833 0.960632 0.959437 0.958247 0.95706 0.955875 0.954689 0.953502 0.952312 0.951117 0.949916 0.948708 0.947492 0.946265 0.945026 0.943774 0.942507 0.941223 0.939921 0.938598 0.937253 0.935883 0.934486 0.93306 0.931603 0.930113 0.928586 0.927021 0.925416 0.92377 0.922082 0.920349 0.918577 0.916766 0.914918 0.913043 0.911147 0.909241 0.907345 0.905501 0.905501 
1.08956 1.08953 1.08953 1.08952 1.0895 1.08949 1.08947 1.08945 1.08942 1.0894 1.08935 1.08933 1.08927 1.08924 1.08916 1.08914 1.08904 1.08902 1.08891 1.08888 1.08876 1.08873 1.08861 1.08857 1.08845 1.0884 1.08828 1.08821 1.08809 1.08802 1.08789 1.0878 1.08768 1.08757 1.08744 1.08732 1.08718 1.08704 1.08689 1.08673 1.08655 1.08636 1.08616 1.08593 1.08569 1.08542 1.08513 1.08479 1.08442 1.08399 1.08349 1.08291 1.08221 1.08137 1.08035 1.07915 1.07774 1.07615 1.0744 1.07245 1.07019 1.06729 1.06329 1.05772 1.05035 1.04151 1.03206 1.02312 1.01559 1.00986 1.00588 1.00333 1.00179 1.00091 1.00045 1.00021 1.00009 1.00004 1.00002 1.00001 1 1 1 1 1 1 1 1 1 1 1 1 1 1 1 1 1 1 1 1 1 1 1 1 1 1 1 1 1 1 1 1 1 1 1 1 1 1 1 1 1 1 1 1 1 1 1 1 1 1 1 1 1 1 1 1 1 1 1 1 1 1 1 1 1 1 1 1 1 1 1 1 1 1 1 1 1 1 1 1 1 1 1 1 1 1 1 1 1 1 1 1 1 1 1 1 1 1 0.999999 0.999998 0.999995 0.999989 0.999977 0.999954 0.99991 0.999835 0.999709 0.999509 0.999207 0.998772 0.998175 0.997392 0.996407 0.995219 0.993841 0.992296 0.99062 0.988851 0.98703 0.985194 0.983376 0.981597 0.979875 0.978218 0.976628 0.975104 0.973639 0.972226 0.970859 0.96953 0.968232 0.96696 0.965707 0.964472 0.96325 0.962039 0.960837 0.959641 0.958451 0.957263 0.956078 0.954892 0.953706 0.952517 0.951324 0.950125 0.94892 0.947706 0.946483 0.945249 0.944002 0.942742 0.941465 0.940171 0.938859 0.937525 0.936169 0.934788 0.93338 0.931944 0.930478 0.928979 0.927446 0.925878 0.924273 0.922632 0.920954 0.91924 0.917493 0.915715 0.913912 0.91209 0.910259 0.908433 0.906647 0.906647 
1.08945 1.0894 1.0894 1.0894 1.08939 1.08938 1.08935 1.08934 1.08931 1.08928 1.08924 1.08922 1.08916 1.08913 1.08906 1.08903 1.08894 1.08892 1.08881 1.08878 1.08867 1.08864 1.08852 1.08848 1.08836 1.08831 1.08819 1.08812 1.088 1.08793 1.0878 1.08771 1.08758 1.08748 1.08734 1.08722 1.08708 1.08693 1.08677 1.08661 1.08642 1.08623 1.08602 1.08579 1.08554 1.08526 1.08495 1.08461 1.08422 1.08377 1.08325 1.08264 1.08192 1.08105 1.08002 1.07881 1.07743 1.07591 1.07427 1.07251 1.07047 1.06782 1.06409 1.05873 1.05148 1.04262 1.03303 1.02387 1.01611 1.0102 1.00608 1.00344 1.00184 1.00094 1.00046 1.00021 1.0001 1.00004 1.00002 1.00001 1 1 1 1 1 1 1 1 1 1 1 1 1 1 1 1 1 1 1 1 1 1 1 1 1 1 1 1 1 1 1 1 1 1 1 1 1 1 1 1 1 1 1 1 1 1 1 1 1 1 1 1 1 1 1 1 1 1 1 1 1 1 1 1 1 1 1 1 1 1 1 1 1 1 1 1 1 1 1 1 1 1 1 1 1 1 1 1 1 1 1 1 1 1 1 1 1 1 0.999999 0.999998 0.999996 0.99999 0.999979 0.999958 0.999918 0.999848 0.999731 0.999544 0.999259 0.998846 0.998275 0.997521 0.996568 0.995411 0.994061 0.992541 0.990884 0.98913 0.987319 0.985488 0.983671 0.98189 0.980164 0.978501 0.976905 0.975374 0.973902 0.972483 0.971111 0.969776 0.968473 0.967197 0.965941 0.964703 0.963479 0.962266 0.961062 0.959865 0.958674 0.957486 0.9563 0.955115 0.953929 0.952741 0.95155 0.950353 0.94915 0.94794 0.946721 0.945491 0.94425 0.942995 0.941726 0.940441 0.939138 0.937816 0.936472 0.935106 0.933716 0.9323 0.930856 0.929383 0.92788 0.926345 0.924778 0.923178 0.921547 0.919883 0.918191 0.916472 0.91473 0.91297 0.9112 0.909433 0.907698 0.907698 
1.08933 1.08929 1.08929 1.08928 1.08927 1.08926 1.08924 1.08922 1.08919 1.08917 1.08913 1.08911 1.08905 1.08903 1.08895 1.08893 1.08884 1.08882 1.08871 1.08869 1.08857 1.08854 1.08842 1.08839 1.08826 1.08822 1.08809 1.08803 1.08791 1.08783 1.08771 1.08761 1.08749 1.08738 1.08724 1.08711 1.08697 1.08682 1.08665 1.08648 1.0863 1.0861 1.08588 1.08564 1.08538 1.08509 1.08477 1.08441 1.08401 1.08354 1.083 1.08237 1.08163 1.08074 1.0797 1.07849 1.07715 1.0757 1.07419 1.0726 1.07078 1.06839 1.0649 1.05974 1.05259 1.0437 1.03396 1.02459 1.01661 1.01051 1.00627 1.00354 1.0019 1.00097 1.00047 1.00022 1.0001 1.00004 1.00002 1.00001 1 1 1 1 1 1 1 1 1 1 1 1 1 1 1 1 1 1 1 1 1 1 1 1 1 1 1 1 1 1 1 1 1 1 1 1 1 1 1 1 1 1 1 1 1 1 1 1 1 1 1 1 1 1 1 1 1 1 1 1 1 1 1 1 1 1 1 1 1 1 1 1 1 1 1 1 1 1 1 1 1 1 1 1 1 1 1 1 1 1 1 1 1 1 1 1 1 1 0.999999 0.999998 0.999996 0.999991 0.999982 0.999963 0.999927 0.999863 0.999755 0.999581 0.999315 0.998926 0.998384 0.997662 0.996744 0.995622 0.994305 0.992814 0.991181 0.989443 0.987642 0.985817 0.983999 0.982216 0.980484 0.978814 0.97721 0.97567 0.97419 0.972764 0.971385 0.970045 0.968737 0.967456 0.966196 0.964955 0.963728 0.962513 0.961307 0.960109 0.958917 0.957728 0.956543 0.955358 0.954172 0.952985 0.951795 0.950601 0.9494 0.948193 0.946978 0.945752 0.944516 0.943268 0.942006 0.940729 0.939436 0.938124 0.936793 0.935442 0.934068 0.93267 0.931247 0.929798 0.928321 0.926817 0.925283 0.923721 0.92213 0.920511 0.918866 0.917196 0.915506 0.913799 0.912082 0.910365 0.908672 0.908672 
1.08921 1.08917 1.08917 1.08917 1.08916 1.08915 1.08913 1.08911 1.08908 1.08906 1.08902 1.089 1.08894 1.08892 1.08885 1.08882 1.08874 1.08871 1.08861 1.08859 1.08847 1.08845 1.08833 1.08829 1.08817 1.08812 1.088 1.08794 1.08781 1.08773 1.08761 1.08751 1.08738 1.08727 1.08713 1.087 1.08685 1.0867 1.08653 1.08636 1.08617 1.08596 1.08573 1.08549 1.08522 1.08492 1.08459 1.08422 1.0838 1.08331 1.08276 1.0821 1.08134 1.08043 1.07938 1.07819 1.07688 1.07552 1.07415 1.07274 1.07114 1.069 1.06574 1.06076 1.05369 1.04475 1.03486 1.02528 1.01709 1.01081 1.00644 1.00363 1.00195 1.00099 1.00048 1.00022 1.0001 1.00004 1.00002 1.00001 1 1 1 1 1 1 1 1 1 1 1 1 1 1 1 1 1 1 1 1 1 1 1 1 1 1 1 1 1 1 1 1 1 1 1 1 1 1 1 1 1 1 1 1 1 1 1 1 1 1 1 1 1 1 1 1 1 1 1 1 1 1 1 1 1 1 1 1 1 1 1 1 1 1 1 1 1 1 1 1 1 1 1 1 1 1 1 1 1 1 1 1 1 1 1 1 1 1 0.999999 0.999999 0.999997 0.999993 0.999984 0.999967 0.999935 0.999877 0.999779 0.999619 0.999373 0.999009 0.998498 0.997813 0.996934 0.995851 0.994572 0.993114 0.991507 0.989789 0.988 0.98618 0.984363 0.982575 0.980836 0.979158 0.977544 0.975994 0.974505 0.973071 0.971683 0.970336 0.969023 0.967737 0.966473 0.965228 0.963999 0.962781 0.961574 0.960374 0.95918 0.957991 0.956805 0.95562 0.954435 0.953249 0.95206 0.950868 0.94967 0.948466 0.947254 0.946033 0.944802 0.94356 0.942305 0.941036 0.939751 0.93845 0.937131 0.935793 0.934435 0.933054 0.931651 0.930224 0.928772 0.927294 0.925791 0.924261 0.922706 0.921126 0.919522 0.917895 0.91625 0.914588 0.912915 0.911241 0.909586 0.909586 
1.0891 1.08905 1.08905 1.08905 1.08904 1.08903 1.08901 1.089 1.08897 1.08895 1.08891 1.08889 1.08883 1.08881 1.08874 1.08872 1.08863 1.08861 1.08851 1.08849 1.08838 1.08835 1.08823 1.08819 1.08807 1.08802 1.0879 1.08784 1.08771 1.08763 1.08751 1.08741 1.08728 1.08717 1.08702 1.08689 1.08674 1.08658 1.08641 1.08623 1.08603 1.08582 1.08559 1.08533 1.08505 1.08475 1.0844 1.08402 1.08358 1.08308 1.0825 1.08183 1.08104 1.08012 1.07907 1.0779 1.07665 1.07538 1.07415 1.07292 1.07155 1.06963 1.06659 1.06177 1.05477 1.04578 1.03574 1.02594 1.01753 1.01109 1.0066 1.00372 1.00199 1.00101 1.00049 1.00023 1.0001 1.00004 1.00002 1.00001 1 1 1 1 1 1 1 1 1 1 1 1 1 1 1 1 1 1 1 1 1 1 1 1 1 1 1 1 1 1 1 1 1 1 1 1 1 1 1 1 1 1 1 1 1 1 1 1 1 1 1 1 1 1 1 1 1 1 1 1 1 1 1 1 1 1 1 1 1 1 1 1 1 1 1 1 1 1 1 1 1 1 1 1 1 1 1 1 1 1 1 1 1 1 1 1 1 1 1 0.999999 0.999997 0.999994 0.999986 0.999971 0.999943 0.999892 0.999803 0.999658 0.999432 0.999095 0.998617 0.997971 0.997134 0.996096 0.994858 0.993438 0.991861 0.990166 0.988392 0.986579 0.984762 0.98297 0.981222 0.979533 0.977908 0.976347 0.974848 0.973403 0.972007 0.970652 0.969332 0.968041 0.966773 0.965524 0.964291 0.963071 0.961861 0.96066 0.959465 0.958275 0.957088 0.955903 0.954718 0.953533 0.952346 0.951155 0.949959 0.948758 0.94755 0.946333 0.945107 0.943871 0.942622 0.941361 0.940085 0.938794 0.937486 0.936161 0.934817 0.933452 0.932067 0.93066 0.92923 0.927777 0.926301 0.924801 0.923278 0.921731 0.920163 0.918575 0.916967 0.915345 0.913711 0.912074 0.910452 0.910452 
1.08898 1.08894 1.08894 1.08894 1.08893 1.08892 1.0889 1.08889 1.08886 1.08884 1.0888 1.08878 1.08873 1.08871 1.08863 1.08862 1.08853 1.08851 1.08841 1.08839 1.08827 1.08825 1.08813 1.0881 1.08797 1.08793 1.0878 1.08774 1.08761 1.08753 1.0874 1.08731 1.08717 1.08706 1.08691 1.08678 1.08662 1.08646 1.08628 1.0861 1.08589 1.08568 1.08544 1.08517 1.08489 1.08457 1.08421 1.08381 1.08336 1.08284 1.08225 1.08155 1.08075 1.07982 1.07877 1.07762 1.07643 1.07527 1.07419 1.07316 1.072 1.07031 1.06747 1.06279 1.05584 1.04678 1.03657 1.02656 1.01795 1.01135 1.00675 1.00379 1.00203 1.00103 1.0005 1.00023 1.0001 1.00004 1.00002 1.00001 1 1 1 1 1 1 1 1 1 1 1 1 1 1 1 1 1 1 1 1 1 1 1 1 1 1 1 1 1 1 1 1 1 1 1 1 1 1 1 1 1 1 1 1 1 1 1 1 1 1 1 1 1 1 1 1 1 1 1 1 1 1 1 1 1 1 1 1 1 1 1 1 1 1 1 1 1 1 1 1 1 1 1 1 1 1 1 1 1 1 1 1 1 1 1 1 1 1 1 0.999999 0.999998 0.999995 0.999988 0.999975 0.999951 0.999905 0.999827 0.999696 0.99949 0.999181 0.998739 0.998134 0.997343 0.996352 0.995162 0.993783 0.992243 0.990574 0.988818 0.987014 0.985198 0.9834 0.981644 0.979943 0.978305 0.976731 0.975219 0.973763 0.972357 0.970994 0.969666 0.968369 0.967095 0.965842 0.964605 0.963382 0.96217 0.960967 0.95977 0.958579 0.957392 0.956206 0.955022 0.953838 0.952651 0.951462 0.950269 0.94907 0.947865 0.946653 0.945432 0.944201 0.942958 0.941704 0.940437 0.939155 0.937858 0.936545 0.935214 0.933865 0.932496 0.931108 0.929698 0.928268 0.926816 0.925342 0.923847 0.922331 0.920794 0.919239 0.917665 0.916077 0.914477 0.912873 0.91128 0.91128 