# vtk DataFile Version 3.0
LBM simulation at step 40
ASCII
DATASET STRUCTURED_POINTS
DIMENSIONS 128 128 1
ORIGIN 0 0 0
SPACING 1 1 1
POINT_DATA 16384
SCALARS density float
LOOKUP_TABLE default
0.953225 1.01857 1.0204 1.01715 1.01739 1.01757 1.0174 1.01726 1.01718 1.01708 1.01699 1.01688 1.01675 1.01659 1.01638 1.0161 1.01574 1.01523 1.01446 1.01328 1.01157 1.00938 1.00694 1.00464 1.00278 1.00148 1.0007 1.00029 1.00011 1.00004 1.00001 1 1 1 1 1 1 1 1 1 1 1 1 1 1 1 1 1 1 1 1 1 1 1 1 1 1 1 1 1 1 1 1 1 1 1 1 1 1 1 1 1 1 1 1 1 1 1 1 1 1 1 1 1 1 1 1 1 1 1 1 1 1 1 1 1 1 1 0.999999 0.999996 0.999984 0.999947 0.999851 0.999641 0.999242 0.998584 0.997633 0.996418 0.995024 0.99356 0.992112 0.990721 0.989389 0.988104 0.986853 0.98563 0.984424 0.983228 0.982029 0.98082 0.979571 0.978259 0.976927 0.975909 0.973393 0.971492 0.988398 0.988398 
1.02116 1.01919 1.01541 1.01671 1.01758 1.0175 1.01733 1.01723 1.01713 1.01703 1.01693 1.01681 1.01667 1.0165 1.01627 1.01597 1.01556 1.01503 1.01428 1.01321 1.01168 1.00968 1.00737 1.00508 1.00314 1.00173 1.00084 1.00037 1.00014 1.00005 1.00001 1 1 1 1 1 1 1 1 1 1 1 1 1 1 1 1 1 1 1 1 1 1 1 1 1 1 1 1 1 1 1 1 1 1 1 1 1 1 1 1 1 1 1 1 1 1 1 1 1 1 1 1 1 1 1 1 1 1 1 1 1 1 1 1 1 1 1 0.999999 0.999995 0.999979 0.999932 0.999817 0.999573 0.999127 0.998418 0.997427 0.996198 0.994824 0.993401 0.991999 0.990641 0.989324 0.988043 0.986791 0.985563 0.984351 0.983143 0.981932 0.980708 0.979456 0.978111 0.976585 0.97528 0.975306 0.975836 0.973352 0.973352 
1.02847 1.01603 1.01544 1.01797 1.0176 1.01718 1.01718 1.01717 1.01707 1.01696 1.01684 1.01672 1.01657 1.01638 1.01614 1.01583 1.01544 1.01494 1.01427 1.0133 1.01189 1.00998 1.00772 1.00541 1.0034 1.0019 1.00095 1.00042 1.00016 1.00006 1.00002 1 1 1 1 1 1 1 1 1 1 1 1 1 1 1 1 1 1 1 1 1 1 1 1 1 1 1 1 1 1 1 1 1 1 1 1 1 1 1 1 1 1 1 1 1 1 1 1 1 1 1 1 1 1 1 1 1 1 1 1 1 1 1 1 1 1 1 0.999999 0.999994 0.999976 0.999926 0.999802 0.999545 0.999081 0.99835 0.997338 0.996094 0.994714 0.993297 0.991908 0.990568 0.989272 0.988006 0.986765 0.985541 0.984329 0.98312 0.981901 0.980648 0.979366 0.978106 0.976853 0.975371 0.974226 0.971772 0.964556 0.964556 
1.01328 1.01763 1.01966 1.01735 1.01671 1.01721 1.01726 1.01708 1.01696 1.01688 1.01676 1.01663 1.01647 1.01628 1.01603 1.01574 1.01536 1.0149 1.01427 1.01339 1.01208 1.01026 1.00804 1.00571 1.00363 1.00206 1.00104 1.00046 1.00018 1.00006 1.00002 1.00001 1 1 1 1 1 1 1 1 1 1 1 1 1 1 1 1 1 1 1 1 1 1 1 1 1 1 1 1 1 1 1 1 1 1 1 1 1 1 1 1 1 1 1 1 1 1 1 1 1 1 1 1 1 1 1 1 1 1 1 1 1 1 1 1 1 1 0.999999 0.999993 0.999975 0.999924 0.999799 0.99954 0.999074 0.99834 0.997325 0.99608 0.994699 0.993282 0.991896 0.990563 0.989275 0.98802 0.986788 0.985569 0.984358 0.983144 0.981926 0.980694 0.979413 0.978058 0.976774 0.975501 0.973828 0.971163 0.966261 0.966261 
1.01749 1.01814 1.01725 1.01682 1.01738 1.01727 1.01701 1.01695 1.0169 1.0168 1.01667 1.01654 1.01638 1.01618 1.01594 1.01565 1.01529 1.01484 1.01427 1.01346 1.01226 1.01054 1.00836 1.00601 1.00387 1.00222 1.00113 1.00051 1.0002 1.00007 1.00002 1.00001 1 1 1 1 1 1 1 1 1 1 1 1 1 1 1 1 1 1 1 1 1 1 1 1 1 1 1 1 1 1 1 1 1 1 1 1 1 1 1 1 1 1 1 1 1 1 1 1 1 1 1 1 1 1 1 1 1 1 1 1 1 1 1 1 1 1 0.999999 0.999994 0.999976 0.999926 0.999806 0.999553 0.999097 0.998377 0.997376 0.996141 0.994766 0.993351 0.991965 0.990633 0.989349 0.988099 0.98687 0.985656 0.984448 0.983238 0.982014 0.980772 0.979519 0.978224 0.97686 0.975363 0.97329 0.971376 0.9696 0.9696 
1.01838 1.01726 1.01683 1.01745 1.0173 1.01694 1.01694 1.01693 1.01682 1.0167 1.01659 1.01645 1.01629 1.01609 1.01585 1.01556 1.0152 1.01478 1.01427 1.01355 1.01245 1.01082 1.00867 1.0063 1.00409 1.00236 1.00121 1.00055 1.00022 1.00008 1.00002 1.00001 1 1 1 1 1 1 1 1 1 1 1 1 1 1 1 1 1 1 1 1 1 1 1 1 1 1 1 1 1 1 1 1 1 1 1 1 1 1 1 1 1 1 1 1 1 1 1 1 1 1 1 1 1 1 1 1 1 1 1 1 1 1 1 1 1 1 0.999999 0.999994 0.999978 0.999932 0.99982 0.999582 0.999149 0.998457 0.997486 0.996274 0.994911 0.993497 0.992106 0.99077 0.989487 0.988241 0.987017 0.985806 0.984601 0.983395 0.98218 0.980941 0.979675 0.978383 0.977003 0.975545 0.973826 0.972065 0.970669 0.970669 
1.01687 1.01713 1.01732 1.01717 1.0169 1.01696 1.01694 1.01681 1.0167 1.01662 1.0165 1.01636 1.01618 1.01599 1.01575 1.01547 1.01513 1.01473 1.01428 1.01365 1.01266 1.0111 1.00898 1.00658 1.00431 1.0025 1.00129 1.00059 1.00024 1.00008 1.00003 1.00001 1 1 1 1 1 1 1 1 1 1 1 1 1 1 1 1 1 1 1 1 1 1 1 1 1 1 1 1 1 1 1 1 1 1 1 1 1 1 1 1 1 1 1 1 1 1 1 1 1 1 1 1 1 1 1 1 1 1 1 1 1 1 1 1 1 1 0.999999 0.999995 0.999981 0.999941 0.99984 0.999624 0.999224 0.998575 0.997649 0.996475 0.995133 0.993723 0.992326 0.990981 0.989692 0.988445 0.987225 0.986019 0.984819 0.983615 0.982404 0.981179 0.979926 0.978636 0.977257 0.975808 0.974387 0.972805 0.971225 0.971225 
1.017 1.01706 1.01706 1.01691 1.01692 1.01692 1.01678 1.0167 1.01663 1.01653 1.01639 1.01625 1.01609 1.01589 1.01565 1.01537 1.01505 1.01469 1.0143 1.01377 1.01288 1.0114 1.0093 1.00685 1.00451 1.00263 1.00136 1.00062 1.00025 1.00009 1.00003 1.00001 1 1 1 1 1 1 1 1 1 1 1 1 1 1 1 1 1 1 1 1 1 1 1 1 1 1 1 1 1 1 1 1 1 1 1 1 1 1 1 1 1 1 1 1 1 1 1 1 1 1 1 1 1 1 1 1 1 1 1 1 1 1 1 1 1 1 0.999999 0.999996 0.999985 0.99995 0.999863 0.999674 0.999315 0.998722 0.997857 0.996737 0.995429 0.994031 0.992628 0.991269 0.989969 0.988717 0.987497 0.986294 0.9851 0.983904 0.9827 0.981483 0.980239 0.978965 0.977653 0.976267 0.97488 0.973438 0.971905 0.971905 
1.01706 1.01689 1.01685 1.01685 1.01685 1.01675 1.01667 1.01662 1.01652 1.01641 1.01629 1.01615 1.01598 1.01579 1.01556 1.01528 1.01497 1.01466 1.01434 1.01391 1.01312 1.0117 1.00961 1.00712 1.0047 1.00275 1.00142 1.00065 1.00026 1.00009 1.00003 1.00001 1 1 1 1 1 1 1 1 1 1 1 1 1 1 1 1 1 1 1 1 1 1 1 1 1 1 1 1 1 1 1 1 1 1 1 1 1 1 1 1 1 1 1 1 1 1 1 1 1 1 1 1 1 1 1 1 1 1 1 1 1 1 1 1 1 1 0.999999 0.999997 0.999988 0.99996 0.999888 0.999728 0.999417 0.998889 0.998099 0.997049 0.995793 0.994419 0.993015 0.991643 0.990326 0.989063 0.987839 0.986637 0.985447 0.984259 0.983065 0.98186 0.980634 0.979377 0.978102 0.976791 0.975426 0.974061 0.972662 0.972662 
1.01681 1.01676 1.01676 1.01674 1.01669 1.01663 1.01659 1.01651 1.01641 1.01631 1.01619 1.01605 1.01588 1.01569 1.01545 1.01519 1.0149 1.01464 1.01441 1.01409 1.01339 1.01202 1.00991 1.00736 1.00487 1.00285 1.00147 1.00067 1.00027 1.00009 1.00003 1.00001 1 1 1 1 1 1 1 1 1 1 1 1 1 1 1 1 1 1 1 1 1 1 1 1 1 1 1 1 1 1 1 1 1 1 1 1 1 1 1 1 1 1 1 1 1 1 1 1 1 1 1 1 1 1 1 1 1 1 1 1 1 1 1 1 1 1 1 0.999998 0.999991 0.99997 0.999913 0.999782 0.999521 0.999065 0.998363 0.997401 0.996215 0.994882 0.99349 0.992107 0.990772 0.989492 0.988257 0.987053 0.985866 0.984684 0.9835 0.982307 0.981102 0.979876 0.978624 0.977357 0.97605 0.974729 0.973402 0.973402 
1.01669 1.01664 1.01663 1.0166 1.01657 1.01653 1.01646 1.01639 1.0163 1.0162 1.01607 1.01594 1.01577 1.01558 1.01534 1.01509 1.01485 1.01465 1.01452 1.0143 1.01368 1.01234 1.01021 1.00759 1.00502 1.00293 1.00151 1.00069 1.00027 1.0001 1.00003 1.00001 1 1 1 1 1 1 1 1 1 1 1 1 1 1 1 1 1 1 1 1 1 1 1 1 1 1 1 1 1 1 1 1 1 1 1 1 1 1 1 1 1 1 1 1 1 1 1 1 1 1 1 1 1 1 1 1 1 1 1 1 1 1 1 1 1 1 1 0.999999 0.999994 0.999978 0.999935 0.999833 0.999622 0.999241 0.998635 0.997775 0.996681 0.995411 0.994047 0.992665 0.991313 0.990013 0.988763 0.987551 0.986362 0.985185 0.984011 0.982832 0.981644 0.980444 0.979223 0.977985 0.976732 0.975455 0.974168 0.974168 
1.01658 1.01649 1.01649 1.01647 1.01644 1.0164 1.01633 1.01627 1.01618 1.01608 1.01596 1.01582 1.01565 1.01546 1.01523 1.01501 1.01481 1.01471 1.01468 1.01456 1.014 1.01266 1.01049 1.0078 1.00515 1.003 1.00154 1.0007 1.00028 1.0001 1.00003 1.00001 1 1 1 1 1 1 1 1 1 1 1 1 1 1 1 1 1 1 1 1 1 1 1 1 1 1 1 1 1 1 1 1 1 1 1 1 1 1 1 1 1 1 1 1 1 1 1 1 1 1 1 1 1 1 1 1 1 1 1 1 1 1 1 1 1 1 1 0.999999 0.999996 0.999985 0.999954 0.999877 0.999714 0.999407 0.998901 0.998156 0.997172 0.995989 0.994678 0.993314 0.991955 0.990637 0.989368 0.988142 0.986947 0.985771 0.984604 0.983438 0.982266 0.981088 0.979897 0.978691 0.977473 0.976239 0.974991 0.974991 
1.01643 1.01635 1.01635 1.01633 1.01631 1.01626 1.01621 1.01615 1.01606 1.01596 1.01584 1.0157 1.01552 1.01533 1.01513 1.01494 1.01483 1.01482 1.0149 1.01485 1.01433 1.01298 1.01074 1.00797 1.00525 1.00306 1.00157 1.00071 1.00028 1.0001 1.00003 1.00001 1 1 1 1 1 1 1 1 1 1 1 1 1 1 1 1 1 1 1 1 1 1 1 1 1 1 1 1 1 1 1 1 1 1 1 1 1 1 1 1 1 1 1 1 1 1 1 1 1 1 1 1 1 1 1 1 1 1 1 1 1 1 1 1 1 1 1 0.999999 0.999997 0.99999 0.999969 0.999915 0.999793 0.999556 0.999149 0.998526 0.997668 0.996597 0.995366 0.994044 0.992697 0.991368 0.990081 0.988839 0.987633 0.986454 0.98529 0.984134 0.982978 0.981818 0.980653 0.979478 0.978293 0.977097 0.97589 0.97589 
1.01629 1.01619 1.0162 1.01619 1.01617 1.01613 1.01608 1.01601 1.01593 1.01583 1.0157 1.01556 1.01539 1.01521 1.01504 1.01493 1.01491 1.015 1.01517 1.01518 1.01467 1.01327 1.01096 1.00812 1.00533 1.0031 1.00159 1.00072 1.00028 1.0001 1.00003 1.00001 1 1 1 1 1 1 1 1 1 1 1 1 1 1 1 1 1 1 1 1 1 1 1 1 1 1 1 1 1 1 1 1 1 1 1 1 1 1 1 1 1 1 1 1 1 1 1 1 1 1 1 1 1 1 1 1 1 1 1 1 1 1 1 1 1 1 1 1 0.999999 0.999994 0.99998 0.999944 0.999858 0.999683 0.999369 0.998868 0.998147 0.997209 0.996087 0.994838 0.993527 0.992206 0.99091 0.989652 0.988434 0.987248 0.986084 0.984934 0.983792 0.98265 0.981507 0.98036 0.979207 0.978046 0.976878 0.976878 
1.01614 1.01602 1.01604 1.01604 1.01602 1.01598 1.01593 1.01587 1.01578 1.01568 1.01555 1.01541 1.01525 1.01511 1.01501 1.01499 1.01506 1.01526 1.01549 1.01553 1.01499 1.01354 1.01115 1.00823 1.00539 1.00312 1.0016 1.00072 1.00029 1.0001 1.00003 1.00001 1 1 1 1 1 1 1 1 1 1 1 1 1 1 1 1 1 1 1 1 1 1 1 1 1 1 1 1 1 1 1 1 1 1 1 1 1 1 1 1 1 1 1 1 1 1 1 1 1 1 1 1 1 1 1 1 1 1 1 1 1 1 1 1 1 1 1 1 0.999999 0.999997 0.999988 0.999965 0.999908 0.999785 0.999555 0.999169 0.998588 0.997797 0.99681 0.995668 0.994426 0.993139 0.991851 0.990587 0.989359 0.988166 0.987001 0.985856 0.984725 0.983601 0.982479 0.981359 0.980237 0.979113 0.977985 0.977985 
1.01596 1.01583 1.01587 1.01587 1.01585 1.01582 1.01577 1.01571 1.01562 1.01552 1.0154 1.01528 1.01516 1.01508 1.01506 1.01513 1.01531 1.01558 1.01584 1.01587 1.01528 1.01376 1.0113 1.00832 1.00544 1.00314 1.0016 1.00072 1.00029 1.0001 1.00003 1.00001 1 1 1 1 1 1 1 1 1 1 1 1 1 1 1 1 1 1 1 1 1 1 1 1 1 1 1 1 1 1 1 1 1 1 1 1 1 1 1 1 1 1 1 1 1 1 1 1 1 1 1 1 1 1 1 1 1 1 1 1 1 1 1 1 1 1 1 1 1 0.999998 0.999994 0.99998 0.999944 0.999863 0.999702 0.99942 0.998974 0.998337 0.997504 0.996498 0.995361 0.994142 0.99289 0.99164 0.990413 0.989217 0.988052 0.986913 0.985794 0.984687 0.98359 0.982498 0.981411 0.980326 0.979244 0.979244 
1.01573 1.01562 1.01567 1.01568 1.01567 1.01565 1.0156 1.01554 1.01546 1.01537 1.01527 1.01519 1.01514 1.01514 1.01521 1.01538 1.01563 1.01593 1.0162 1.01619 1.01553 1.01393 1.0114 1.00837 1.00546 1.00315 1.00161 1.00072 1.00029 1.0001 1.00003 1.00001 1 1 1 1 1 1 1 1 1 1 1 1 1 1 1 1 1 1 1 1 1 1 1 1 1 1 1 1 1 1 1 1 1 1 1 1 1 1 1 1 1 1 1 1 1 1 1 1 1 1 1 1 1 1 1 1 1 1 1 1 1 1 1 1 1 1 1 1 1 0.999999 0.999997 0.999989 0.999968 0.999918 0.999813 0.999618 0.999293 0.998806 0.998137 0.99729 0.996291 0.995179 0.993999 0.992791 0.991585 0.9904 0.989242 0.988112 0.987008 0.985923 0.984853 0.983796 0.982749 0.981712 0.980684 0.980684 
1.01549 1.01543 1.01549 1.0155 1.0155 1.01548 1.01544 1.01539 1.01533 1.01527 1.01522 1.0152 1.01522 1.01532 1.01547 1.01571 1.01599 1.0163 1.01653 1.01646 1.01573 1.01406 1.01148 1.00841 1.00548 1.00316 1.00161 1.00072 1.00029 1.0001 1.00003 1.00001 1 1 1 1 1 1 1 1 1 1 1 1 1 1 1 1 1 1 1 1 1 1 1 1 1 1 1 1 1 1 1 1 1 1 1 1 1 1 1 1 1 1 1 1 1 1 1 1 1 1 1 1 1 1 1 1 1 1 1 1 1 1 1 1 1 1 1 1 1 1 0.999999 0.999995 0.999983 0.999954 0.99989 0.999764 0.999542 0.999191 0.998683 0.998007 0.997171 0.996202 0.995133 0.994005 0.992851 0.991699 0.990563 0.989452 0.988368 0.987309 0.986273 0.985256 0.984257 0.983275 0.98231 0.98231 
1.01528 1.0153 1.01535 1.01536 1.01537 1.01536 1.01533 1.01531 1.01528 1.01527 1.01528 1.01534 1.01544 1.0156 1.01582 1.01608 1.01636 1.01664 1.01681 1.01667 1.01587 1.01414 1.01152 1.00843 1.00549 1.00316 1.00161 1.00072 1.00029 1.0001 1.00003 1.00001 1 1 1 1 1 1 1 1 1 1 1 1 1 1 1 1 1 1 1 1 1 1 1 1 1 1 1 1 1 1 1 1 1 1 1 1 1 1 1 1 1 1 1 1 1 1 1 1 1 1 1 1 1 1 1 1 1 1 1 1 1 1 1 1 1 1 1 1 1 1 0.999999 0.999998 0.999992 0.999977 0.99994 0.999865 0.999723 0.999486 0.999124 0.998617 0.997959 0.997158 0.996238 0.995231 0.994169 0.993082 0.991993 0.990919 0.989867 0.988842 0.987844 0.986873 0.985927 0.985007 0.984114 0.984114 
1.01521 1.0153 1.01533 1.01534 1.01535 1.01535 1.01534 1.01535 1.01537 1.01542 1.01549 1.01561 1.01577 1.01597 1.01621 1.01646 1.01671 1.01693 1.01703 1.01682 1.01597 1.0142 1.01155 1.00844 1.00549 1.00316 1.00161 1.00072 1.00029 1.0001 1.00003 1.00001 1 1 1 1 1 1 1 1 1 1 1 1 1 1 1 1 1 1 1 1 1 1 1 1 1 1 1 1 1 1 1 1 1 1 1 1 1 1 1 1 1 1 1 1 1 1 1 1 1 1 1 1 1 1 1 1 1 1 1 1 1 1 1 1 1 1 1 1 1 1 1 0.999999 0.999997 0.999989 0.99997 0.999928 0.999845 0.999697 0.999458 0.999103 0.998618 0.997999 0.997254 0.996404 0.995475 0.994495 0.993491 0.992482 0.991485 0.990509 0.989561 0.988643 0.987758 0.986908 0.986097 0.986097 
1.01533 1.01547 1.01547 1.01547 1.01547 1.01549 1.01551 1.01555 1.01561 1.0157 1.01582 1.01598 1.01616 1.01637 1.01658 1.0168 1.01699 1.01714 1.01718 1.01692 1.01602 1.01423 1.01156 1.00845 1.00549 1.00316 1.00161 1.00072 1.00029 1.0001 1.00003 1.00001 1 1 1 1 1 1 1 1 1 1 1 1 1 1 1 1 1 1 1 1 1 1 1 1 1 1 1 1 1 1 1 1 1 1 1 1 1 1 1 1 1 1 1 1 1 1 1 1 1 1 1 1 1 1 1 1 1 1 1 1 1 1 1 1 1 1 1 1 1 1 1 1 0.999999 0.999995 0.999987 0.999966 0.999921 0.999836 0.99969 0.999462 0.999131 0.998687 0.998126 0.997457 0.996696 0.995864 0.994986 0.994083 0.993175 0.992277 0.991401 0.990555 0.989746 0.98898 0.988263 0.988263 
1.01563 1.01579 1.01577 1.01575 1.01576 1.01578 1.01582 1.01588 1.01597 1.01608 1.01622 1.01638 1.01655 1.01673 1.0169 1.01706 1.01719 1.01729 1.01728 1.01698 1.01605 1.01424 1.01157 1.00845 1.00549 1.00316 1.00161 1.00072 1.00029 1.0001 1.00003 1.00001 1 1 1 1 1 1 1 1 1 1 1 1 1 1 1 1 1 1 1 1 1 1 1 1 1 1 1 1 1 1 1 1 1 1 1 1 1 1 1 1 1 1 1 1 1 1 1 1 1 1 1 1 1 1 1 1 1 1 1 1 1 1 1 1 1 1 1 1 1 1 1 1 1 0.999998 0.999995 0.999985 0.999963 0.999919 0.999838 0.999704 0.999498 0.999205 0.998817 0.998332 0.997755 0.9971 0.996385 0.995629 0.994851 0.994069 0.9933 0.992555 0.991846 0.991183 0.990578 0.990578 
1.01605 1.0162 1.01616 1.01614 1.01614 1.01617 1.01621 1.01629 1.01637 1.01649 1.01661 1.01675 1.01689 1.01702 1.01714 1.01725 1.01733 1.01738 1.01734 1.01701 1.01607 1.01425 1.01157 1.00845 1.00549 1.00316 1.00161 1.00072 1.00029 1.0001 1.00003 1.00001 1 1 1 1 1 1 1 1 1 1 1 1 1 1 1 1 1 1 1 1 1 1 1 1 1 1 1 1 1 1 1 1 1 1 1 1 1 1 1 1 1 1 1 1 1 1 1 1 1 1 1 1 1 1 1 1 1 1 1 1 1 1 1 1 1 1 1 1 1 1 1 1 1 0.999999 0.999998 0.999994 0.999985 0.999964 0.999924 0.999852 0.999736 0.999561 0.999316 0.998996 0.998597 0.998126 0.997592 0.997009 0.996394 0.995763 0.995134 0.994521 0.993939 0.993401 0.992921 0.992921 
1.01649 1.01661 1.01657 1.01655 1.01655 1.01657 1.01661 1.01668 1.01675 1.01685 1.01694 1.01705 1.01714 1.01723 1.0173 1.01736 1.0174 1.01742 1.01736 1.01702 1.01608 1.01425 1.01157 1.00845 1.00549 1.00316 1.00161 1.00072 1.00029 1.0001 1.00003 1.00001 1 1 1 1 1 1 1 1 1 1 1 1 1 1 1 1 1 1 1 1 1 1 1 1 1 1 1 1 1 1 1 1 1 1 1 1 1 1 1 1 1 1 1 1 1 1 1 1 1 1 1 1 1 1 1 1 1 1 1 1 1 1 1 1 1 1 1 1 1 1 1 1 1 1 0.999999 0.999998 0.999995 0.999986 0.999968 0.999934 0.999875 0.999781 0.999642 0.999451 0.999202 0.998895 0.998534 0.998127 0.997685 0.997222 0.996752 0.99629 0.99585 0.995448 0.995095 0.995095 
1.01686 1.01695 1.01692 1.0169 1.0169 1.01692 1.01695 1.017 1.01705 1.01712 1.01718 1.01725 1.0173 1.01735 1.01739 1.01742 1.01744 1.01745 1.01737 1.01703 1.01608 1.01425 1.01157 1.00845 1.00549 1.00316 1.00161 1.00072 1.00029 1.0001 1.00003 1.00001 1 1 1 1 1 1 1 1 1 1 1 1 1 1 1 1 1 1 1 1 1 1 1 1 1 1 1 1 1 1 1 1 1 1 1 1 1 1 1 1 1 1 1 1 1 1 1 1 1 1 1 1 1 1 1 1 1 1 1 1 1 1 1 1 1 1 1 1 1 1 1 1 1 1 1 0.999999 0.999998 0.999995 0.999988 0.999974 0.999947 0.999902 0.999832 0.99973 0.999591 0.999412 0.999193 0.998938 0.998652 0.998346 0.99803 0.997715 0.997415 0.997141 0.996905 0.996905 
1.01713 1.01719 1.01717 1.01715 1.01716 1.01717 1.01719 1.01722 1.01725 1.01729 1.01733 1.01736 1.01739 1.01742 1.01744 1.01745 1.01746 1.01746 1.01738 1.01703 1.01608 1.01425 1.01157 1.00845 1.00549 1.00316 1.00161 1.00072 1.00029 1.0001 1.00003 1.00001 1 1 1 1 1 1 1 1 1 1 1 1 1 1 1 1 1 1 1 1 1 1 1 1 1 1 1 1 1 1 1 1 1 1 1 1 1 1 1 1 1 1 1 1 1 1 1 1 1 1 1 1 1 1 1 1 1 1 1 1 1 1 1 1 1 1 1 1 1 1 1 1 1 1 1 1 1 0.999999 0.999996 0.999991 0.99998 0.999961 0.99993 0.999882 0.999813 0.99972 0.999602 0.999459 0.999295 0.999114 0.998924 0.998732 0.998548 0.998381 0.998239 0.998239 
1.0173 1.01734 1.01732 1.01731 1.01732 1.01732 1.01733 1.01735 1.01737 1.01739 1.01741 1.01743 1.01744 1.01745 1.01746 1.01746 1.01746 1.01746 1.01738 1.01703 1.01608 1.01425 1.01157 1.00845 1.00549 1.00316 1.00161 1.00072 1.00029 1.0001 1.00003 1.00001 1 1 1 1 1 1 1 1 1 1 1 1 1 1 1 1 1 1 1 1 1 1 1 1 1 1 1 1 1 1 1 1 1 1 1 1 1 1 1 1 1 1 1 1 1 1 1 1 1 1 1 1 1 1 1 1 1 1 1 1 1 1 1 1 1 1 1 1 1 1 1 1 1 1 1 1 1 1 0.999999 0.999997 0.999994 0.999987 0.999974 0.999954 0.999924 0.999881 0.999825 0.999755 0.999671 0.999577 0.999475 0.999371 0.999271 0.999179 0.999103 0.999103 
1.0174 1.01741 1.01741 1.0174 1.0174 1.01741 1.01741 1.01742 1.01743 1.01744 1.01744 1.01745 1.01746 1.01746 1.01746 1.01747 1.01747 1.01746 1.01738 1.01703 1.01608 1.01425 1.01157 1.00845 1.00549 1.00316 1.00161 1.00072 1.00029 1.0001 1.00003 1.00001 1 1 1 1 1 1 1 1 1 1 1 1 1 1 1 1 1 1 1 1 1 1 1 1 1 1 1 1 1 1 1 1 1 1 1 1 1 1 1 1 1 1 1 1 1 1 1 1 1 1 1 1 1 1 1 1 1 1 1 1 1 1 1 1 1 1 1 1 1 1 1 1 1 1 1 1 1 1 1 0.999999 0.999998 0.999996 0.999992 0.999984 0.999973 0.999956 0.999932 0.999901 0.999864 0.99982 0.999772 0.999723 0.999674 0.99963 0.999593 0.999593 
1.01744 1.01745 1.01745 1.01744 1.01744 1.01745 1.01745 1.01745 1.01745 1.01746 1.01746 1.01746 1.01746 1.01747 1.01747 1.01747 1.01747 1.01746 1.01738 1.01703 1.01608 1.01425 1.01157 1.00845 1.00549 1.00316 1.00161 1.00072 1.00029 1.0001 1.00003 1.00001 1 1 1 1 1 1 1 1 1 1 1 1 1 1 1 1 1 1 1 1 1 1 1 1 1 1 1 1 1 1 1 1 1 1 1 1 1 1 1 1 1 1 1 1 1 1 1 1 1 1 1 1 1 1 1 1 1 1 1 1 1 1 1 1 1 1 1 1 1 1 1 1 1 1 1 1 1 1 1 1 1 0.999999 0.999998 0.999995 0.999992 0.999986 0.999977 0.999965 0.99995 0.999933 0.999913 0.999892 0.999871 0.999852 0.999837 0.999837 
1.01746 1.01746 1.01746 1.01746 1.01746 1.01746 1.01746 1.01746 1.01746 1.01747 1.01746 1.01747 1.01747 1.01747 1.01747 1.01747 1.01747 1.01746 1.01738 1.01703 1.01608 1.01425 1.01157 1.00845 1.00549 1.00316 1.00161 1.00072 1.00029 1.0001 1.00003 1.00001 1 1 1 1 1 1 1 1 1 1 1 1 1 1 1 1 1 1 1 1 1 1 1 1 1 1 1 1 1 1 1 1 1 1 1 1 1 1 1 1 1 1 1 1 1 1 1 1 1 1 1 1 1 1 1 1 1 1 1 1 1 1 1 1 1 1 1 1 1 1 1 1 1 1 1 1 1 1 1 1 1 1 0.999999 0.999999 0.999998 0.999996 0.999993 0.999989 0.999984 0.999978 0.999971 0.999963 0.999955 0.999948 0.999942 0.999942 
1.01746 1.01746 1.01747 1.01746 1.01747 1.01747 1.01746 1.01747 1.01746 1.01747 1.01747 1.01747 1.01747 1.01747 1.01747 1.01747 1.01747 1.01746 1.01738 1.01703 1.01608 1.01425 1.01157 1.00845 1.00549 1.00316 1.00161 1.00072 1.00029 1.0001 1.00003 1.00001 1 1 1 1 1 1 1 1 1 1 1 1 1 1 1 1 1 1 1 1 1 1 1 1 1 1 1 1 1 1 1 1 1 1 1 1 1 1 1 1 1 1 1 1 1 1 1 1 1 1 1 1 1 1 1 1 1 1 1 1 1 1 1 1 1 1 1 1 1 1 1 1 1 1 1 1 1 1 1 1 1 1 1 1 0.999999 0.999999 0.999998 0.999997 0.999996 0.999994 0.999991 0.999989 0.999986 0.999984 0.999982 0.999982 
1.01746 1.01747 1.01747 1.01747 1.01747 1.01747 1.01747 1.01747 1.01747 1.01747 1.01747 1.01747 1.01747 1.01747 1.01747 1.01747 1.01747 1.01746 1.01738 1.01703 1.01608 1.01425 1.01157 1.00845 1.00549 1.00316 1.00161 1.00072 1.00029 1.0001 1.00003 1.00001 1 1 1 1 1 1 1 1 1 1 1 1 1 1 1 1 1 1 1 1 1 1 1 1 1 1 1 1 1 1 1 1 1 1 1 1 1 1 1 1 1 1 1 1 1 1 1 1 1 1 1 1 1 1 1 1 1 1 1 1 1 1 1 1 1 1 1 1 1 1 1 1 1 1 1 1 1 1 1 1 1 1 1 1 1 1 1 0.999999 0.999999 0.999998 0.999998 0.999997 0.999996 0.999996 0.999995 0.999995 
1.01747 1.01747 1.01747 1.01747 1.01747 1.01747 1.01747 1.01747 1.01747 1.01747 1.01747 1.01747 1.01747 1.01747 1.01747 1.01747 1.01747 1.01746 1.01738 1.01703 1.01608 1.01425 1.01157 1.00845 1.00549 1.00316 1.00161 1.00072 1.00029 1.0001 1.00003 1.00001 1 1 1 1 1 1 1 1 1 1 1 1 1 1 1 1 1 1 1 1 1 1 1 1 1 1 1 1 1 1 1 1 1 1 1 1 1 1 1 1 1 1 1 1 1 1 1 1 1 1 1 1 1 1 1 1 1 1 1 1 1 1 1 1 1 1 1 1 1 1 1 1 1 1 1 1 1 1 1 1 1 1 1 1 1 1 1 1 1 1 1 0.999999 0.999999 0.999999 0.999999 0.999999 
1.01747 1.01747 1.01747 1.01747 1.01747 1.01747 1.01747 1.01747 1.01747 1.01747 1.01747 1.01747 1.01747 1.01747 1.01747 1.01747 1.01747 1.01746 1.01738 1.01703 1.01608 1.01425 1.01157 1.00845 1.00549 1.00316 1.00161 1.00072 1.00029 1.0001 1.00003 1.00001 1 1 1 1 1 1 1 1 1 1 1 1 1 1 1 1 1 1 1 1 1 1 1 1 1 1 1 1 1 1 1 1 1 1 1 1 1 1 1 1 1 1 1 1 1 1 1 1 1 1 1 1 1 1 1 1 1 1 1 1 1 1 1 1 1 1 1 1 1 1 1 1 1 1 1 1 1 1 1 1 1 1 1 1 1 1 1 1 1 1 1 1 1 1 1 1 
1.01747 1.01747 1.01747 1.01747 1.01747 1.01747 1.01747 1.01747 1.01747 1.01747 1.01747 1.01747 1.01747 1.01747 1.01747 1.01747 1.01747 1.01746 1.01738 1.01703 1.01608 1.01425 1.01157 1.00845 1.00549 1.00316 1.00161 1.00072 1.00029 1.0001 1.00003 1.00001 1 1 1 1 1 1 1 1 1 1 1 1 1 1 1 1 1 1 1 1 1 1 1 1 1 1 1 1 1 1 1 1 1 1 1 1 1 1 1 1 1 1 1 1 1 1 1 1 1 1 1 1 1 1 1 1 1 1 1 1 1 1 1 1 1 1 1 1 1 1 1 1 1 1 1 1 1 1 1 1 1 1 1 1 1 1 1 1 1 1 1 1 1 1 1 1 
1.01747 1.01747 1.01747 1.01747 1.01747 1.01747 1.01747 1.01747 1.01747 1.01747 1.01747 1.01747 1.01747 1.01747 1.01747 1.01747 1.01747 1.01746 1.01738 1.01703 1.01608 1.01425 1.01157 1.00845 1.00549 1.00316 1.00161 1.00072 1.00029 1.0001 1.00003 1.00001 1 1 1 1 1 1 1 1 1 1 1 1 1 1 1 1 1 1 1 1 1 1 1 1 1 1 1 1 1 1 1 1 1 1 1 1 1 1 1 1 1 1 1 1 1 1 1 1 1 1 1 1 1 1 1 1 1 1 1 1 1 1 1 1 1 1 1 1 1 1 1 1 1 1 1 1 1 1 1 1 1 1 1 1 1 1 1 1 1 1 1 1 1 1 1 1 
1.01747 1.01747 1.01747 1.01747 1.01747 1.01747 1.01747 1.01747 1.01747 1.01747 1.01747 1.01747 1.01747 1.01747 1.01747 1.01747 1.01747 1.01746 1.01738 1.01703 1.01608 1.01425 1.01157 1.00845 1.00549 1.00316 1.00161 1.00072 1.00029 1.0001 1.00003 1.00001 1 1 1 1 1 1 1 1 1 1 1 1 1 1 1 1 1 1 1 1 1 1 1 1 1 1 1 1 1 1 1 1 1 1 1 1 1 1 1 1 1 1 1 1 1 1 1 1 1 1 1 1 1 1 1 1 1 1 1 1 1 1 1 1 1 1 1 1 1 1 1 1 1 1 1 1 1 1 1 1 1 1 1 1 1 1 1 1 1 1 1 1 1 1 1 1 
1.01747 1.01747 1.01747 1.01747 1.01747 1.01747 1.01747 1.01747 1.01747 1.01747 1.01747 1.01747 1.01747 1.01747 1.01747 1.01747 1.01747 1.01746 1.01738 1.01703 1.01608 1.01425 1.01157 1.00845 1.00549 1.00316 1.00161 1.00072 1.00029 1.0001 1.00003 1.00001 1 1 1 1 1 1 1 1 1 1 1 1 1 1 1 1 1 1 1 1 1 1 1 1 1 1 1 1 1 1 1 1 1 1 1 1 1 1 1 1 1 1 1 1 1 1 1 1 1 1 1 1 1 1 1 1 1 1 1 1 1 1 1 1 1 1 1 1 1 1 1 1 1 1 1 1 1 1 1 1 1 1 1 1 1 1 1 1 1 1 1 1 1 1 1 1 
1.01747 1.01747 1.01747 1.01747 1.01747 1.01747 1.01747 1.01747 1.01747 1.01747 1.01747 1.01747 1.01747 1.01747 1.01747 1.01747 1.01747 1.01746 1.01738 1.01703 1.01608 1.01425 1.01157 1.00845 1.00549 1.00316 1.00161 1.00072 1.00029 1.0001 1.00003 1.00001 1 1 1 1 1 1 1 1 1 1 1 1 1 1 1 1 1 1 1 1 1 1 1 1 1 1 1 1 1 1 1 1 1 1 1 1 1 1 1 1 1 1 1 1 1 1 1 1 1 1 1 1 1 1 1 1 1 1 1 1 1 1 1 1 1 1 1 1 1 1 1 1 1 1 1 1 1 1 1 1 1 1 1 1 1 1 1 1 1 1 1 1 1 1 1 1 
1.01747 1.01747 1.01747 1.01747 1.01747 1.01747 1.01747 1.01747 1.01747 1.01747 1.01747 1.01747 1.01747 1.01747 1.01747 1.01747 1.01747 1.01746 1.01738 1.01703 1.01608 1.01425 1.01157 1.00845 1.00549 1.00316 1.00161 1.00072 1.00029 1.0001 1.00003 1.00001 1 1 1 1 1 1 1 1 1 1 1 1 1 1 1 1 1 1 1 1 1 1 1 1 1 1 1 1 1 1 1 1 1 1 1 1 1 1 1 1 1 1 1 1 1 1 1 1 1 1 1 1 1 1 1 1 1 1 1 1 1 1 1 1 1 1 1 1 1 1 1 1 1 1 1 1 1 1 1 1 1 1 1 1 1 1 1 1 1 1 1 1 1 1 1 1 
1.01747 1.01747 1.01747 1.01747 1.01747 1.01747 1.01747 1.01747 1.01747 1.01747 1.01747 1.01747 1.01747 1.01747 1.01747 1.01747 1.01747 1.01746 1.01738 1.01703 1.01608 1.01425 1.01157 1.00845 1.00549 1.00316 1.00161 1.00072 1.00029 1.0001 1.00003 1.00001 1 1 1 1 1 1 1 1 1 1 1 1 1 1 1 1 1 1 1 1 1 1 1 1 1 1 1 1 1 1 1 1 1 1 1 1 1 1 1 1 1 1 1 1 1 1 1 1 1 1 1 1 1 1 1 1 1 1 1 1 1 1 1 1 1 1 1 1 1 1 1 1 1 1 1 1 1 1 1 1 1 1 1 1 1 1 1 1 1 1 1 1 1 1 1 1 
1.01747 1.01747 1.01747 1.01747 1.01747 1.01747 1.01747 1.01747 1.01747 1.01747 1.01747 1.01747 1.01747 1.01747 1.01747 1.01747 1.01747 1.01746 1.01738 1.01703 1.01608 1.01425 1.01157 1.00845 1.00549 1.00316 1.00161 1.00072 1.00029 1.0001 1.00003 1.00001 1 1 1 1 1 1 1 1 1 1 1 1 1 1 1 1 1 1 1 1 1 1 1 1 1 1 1 1 1 1 1 1 1 1 1 1 1 1 1 1 1 1 1 1 1 1 1 1 1 1 1 1 1 1 1 1 1 1 1 1 1 1 1 1 1 1 1 1 1 1 1 1 1 1 1 1 1 1 1 1 1 1 1 1 1 1 1 1 1 1 1 1 1 1 1 1 
1.01747 1.01747 1.01747 1.01747 1.01747 1.01747 1.01747 1.01747 1.01747 1.01747 1.01747 1.01747 1.01747 1.01747 1.01747 1.01747 1.01747 1.01746 1.01738 1.01703 1.01608 1.01425 1.01157 1.00845 1.00549 1.00316 1.00161 1.00072 1.00029 1.0001 1.00003 1.00001 1 1 1 1 1 1 1 1 1 1 1 1 1 1 1 1 1 1 1 1 1 1 1 1 1 1 1 1 1 1 1 1 1 1 1 1 1 1 1 1 1 1 1 1 1 1 1 1 1 1 1 1 1 1 1 1 1 1 1 1 1 1 1 1 1 1 1 1 1 1 1 1 1 1 1 1 1 1 1 1 1 1 1 1 1 1 1 1 1 1 1 1 1 1 1 1 
1.01747 1.01747 1.01747 1.01747 1.01747 1.01747 1.01747 1.01747 1.01747 1.01747 1.01747 1.01747 1.01747 1.01747 1.01747 1.01747 1.01747 1.01746 1.01738 1.01703 1.01608 1.01425 1.01157 1.00845 1.00549 1.00316 1.00161 1.00072 1.00029 1.0001 1.00003 1.00001 1 1 1 1 1 1 1 1 1 1 1 1 1 1 1 1 1 1 1 1 1 1 1 1 1 1 1 1 1 1 1 1 1 1 1 1 1 1 1 1 1 1 1 1 1 1 1 1 1 1 1 1 1 1 1 1 1 1 1 1 1 1 1 1 1 1 1 1 1 1 1 1 1 1 1 1 1 1 1 1 1 1 1 1 1 1 1 1 1 1 1 1 1 1 1 1 
1.01747 1.01747 1.01747 1.01747 1.01747 1.01747 1.01747 1.01747 1.01747 1.01747 1.01747 1.01747 1.01747 1.01747 1.01747 1.01747 1.01747 1.01746 1.01738 1.01703 1.01608 1.01425 1.01157 1.00845 1.00549 1.00316 1.00161 1.00072 1.00029 1.0001 1.00003 1.00001 1 1 1 1 1 1 1 1 1 1 1 1 1 1 1 1 1 1 1 1 1 1 1 1 1 1 1 1 1 1 1 1 1 1 1 1 1 1 1 1 1 1 1 1 1 1 1 1 1 1 1 1 1 1 1 1 1 1 1 1 1 1 1 1 1 1 1 1 1 1 1 1 1 1 1 1 1 1 1 1 1 1 1 1 1 1 1 1 1 1 1 1 1 1 1 1 
1.01747 1.01747 1.01747 1.01747 1.01747 1.01747 1.01747 1.01747 1.01747 1.01747 1.01747 1.01747 1.01747 1.01747 1.01747 1.01747 1.01747 1.01746 1.01738 1.01703 1.01608 1.01425 1.01157 1.00845 1.00549 1.00316 1.00161 1.00072 1.00029 1.0001 1.00003 1.00001 1 1 1 1 1 1 1 1 1 1 1 1 1 1 1 1 1 1 1 1 1 1 1 1 1 1 1 1 1 1 1 1 1 1 1 1 1 1 1 1 1 1 1 1 1 1 1 1 1 1 1 1 1 1 1 1 1 1 1 1 1 1 1 1 1 1 1 1 1 1 1 1 1 1 1 1 1 1 1 1 1 1 1 1 1 1 1 1 1 1 1 1 1 1 1 1 
1.01747 1.01747 1.01747 1.01747 1.01747 1.01747 1.01747 1.01747 1.01747 1.01747 1.01747 1.01747 1.01747 1.01747 1.01747 1.01747 1.01747 1.01746 1.01738 1.01703 1.01608 1.01425 1.01157 1.00845 1.00549 1.00316 1.00161 1.00072 1.00029 1.0001 1.00003 1.00001 1 1 1 1 1 1 1 1 1 1 1 1 1 1 1 1 1 1 1 1 1 1 1 1 1 1 1 1 1 1 1 1 1 1 1 1 1 1 1 1 1 1 1 1 1 1 1 1 1 1 1 1 1 1 1 1 1 1 1 1 1 1 1 1 1 1 1 1 1 1 1 1 1 1 1 1 1 1 1 1 1 1 1 1 1 1 1 1 1 1 1 1 1 1 1 1 
1.01747 1.01747 1.01747 1.01747 1.01747 1.01747 1.01747 1.01747 1.01747 1.01747 1.01747 1.01747 1.01747 1.01747 1.01747 1.01747 1.01747 1.01746 1.01738 1.01703 1.01608 1.01425 1.01157 1.00845 1.00549 1.00316 1.00161 1.00072 1.00029 1.0001 1.00003 1.00001 1 1 1 1 1 1 1 1 1 1 1 1 1 1 1 1 1 1 1 1 1 1 1 1 1 1 1 1 1 1 1 1 1 1 1 1 1 1 1 1 1 1 1 1 1 1 1 1 1 1 1 1 1 1 1 1 1 1 1 1 1 1 1 1 1 1 1 1 1 1 1 1 1 1 1 1 1 1 1 1 1 1 1 1 1 1 1 1 1 1 1 1 1 1 1 1 
1.01747 1.01747 1.01747 1.01747 1.01747 1.01747 1.01747 1.01747 1.01747 1.01747 1.01747 1.01747 1.01747 1.01747 1.01747 1.01747 1.01747 1.01746 1.01738 1.01703 1.01608 1.01425 1.01157 1.00845 1.00549 1.00316 1.00161 1.00072 1.00029 1.0001 1.00003 1.00001 1 1 1 1 1 1 1 1 1 1 1 1 1 1 1 1 1 1 1 1 1 1 1 1 1 1 1 1 1 1 1 1 1 1 1 1 1 1 1 1 1 1 1 1 1 1 1 1 1 1 1 1 1 1 1 1 1 1 1 1 1 1 1 1 1 1 1 1 1 1 1 1 1 1 1 1 1 1 1 1 1 1 1 1 1 1 1 1 1 1 1 1 1 1 1 1 
1.01747 1.01747 1.01747 1.01747 1.01747 1.01747 1.01747 1.01747 1.01747 1.01747 1.01747 1.01747 1.01747 1.01747 1.01747 1.01747 1.01747 1.01746 1.01738 1.01703 1.01608 1.01425 1.01157 1.00845 1.00549 1.00316 1.00161 1.00072 1.00029 1.0001 1.00003 1.00001 1 1 1 1 1 1 1 1 1 1 1 1 1 1 1 1 1 1 1 1 1 1 1 1 1 1 1 1 1 1 1 1 1 1 1 1 1 1 1 1 1 1 1 1 1 1 1 1 1 1 1 1 1 1 1 1 1 1 1 1 1 1 1 1 1 1 1 1 1 1 1 1 1 1 1 1 1 1 1 1 1 1 1 1 1 1 1 1 1 1 1 1 1 1 1 1 
1.01747 1.01747 1.01747 1.01747 1.01747 1.01747 1.01747 1.01747 1.01747 1.01747 1.01747 1.01747 1.01747 1.01747 1.01747 1.01747 1.01747 1.01746 1.01738 1.01703 1.01608 1.01425 1.01157 1.00845 1.00549 1.00316 1.00161 1.00072 1.00029 1.0001 1.00003 1.00001 1 1 1 1 1 1 1 1 1 1 1 1 1 1 1 1 1 1 1 1 1 1 1 1 1 1 1 1 1 1 1 1 1 1 1 1 1 1 1 1 1 1 1 1 1 1 1 1 1 1 1 1 1 1 1 1 1 1 1 1 1 1 1 1 1 1 1 1 1 1 1 1 1 1 1 1 1 1 1 1 1 1 1 1 1 1 1 1 1 1 1 1 1 1 1 1 
1.01747 1.01747 1.01747 1.01747 1.01747 1.01747 1.01747 1.01747 1.01747 1.01747 1.01747 1.01747 1.01747 1.01747 1.01747 1.01747 1.01747 1.01746 1.01738 1.01703 1.01608 1.01425 1.01157 1.00845 1.00549 1.00316 1.00161 1.00072 1.00029 1.0001 1.00003 1.00001 1 1 1 1 1 1 1 1 1 1 1 1 1 1 1 1 1 1 1 1 1 1 1 1 1 1 1 1 1 1 1 1 1 1 1 1 1 1 1 1 1 1 1 1 1 1 1 1 1 1 1 1 1 1 1 1 1 1 1 1 1 1 1 1 1 1 1 1 1 1 1 1 1 1 1 1 1 1 1 1 1 1 1 1 1 1 1 1 1 1 1 1 1 1 1 1 
1.01747 1.01747 1.01747 1.01747 1.01747 1.01747 1.01747 1.01747 1.01747 1.01747 1.01747 1.01747 1.01747 1.01747 1.01747 1.01747 1.01747 1.01746 1.01738 1.01703 1.01608 1.01425 1.01157 1.00845 1.00549 1.00316 1.00161 1.00072 1.00029 1.0001 1.00003 1.00001 1 1 1 1 1 1 1 1 1 1 1 1 1 1 1 1 1 1 1 1 1 1 1 1 1 1 1 1 1 1 1 1 1 1 1 1 1 1 1 1 1 1 1 1 1 1 1 1 1 1 1 1 1 1 1 1 1 1 1 1 1 1 1 1 1 1 1 1 1 1 1 1 1 1 1 1 1 1 1 1 1 1 1 1 1 1 1 1 1 1 1 1 1 1 1 1 
1.01747 1.01747 1.01747 1.01747 1.01747 1.01747 1.01747 1.01747 1.01747 1.01747 1.01747 1.01747 1.01747 1.01747 1.01747 1.01747 1.01747 1.01746 1.01738 1.01703 1.01608 1.01425 1.01157 1.00845 1.00549 1.00316 1.00161 1.00072 1.00029 1.0001 1.00003 1.00001 1 1 1 1 1 1 1 1 1 1 1 1 1 1 1 1 1 1 1 1 1 1 1 1 1 1 1 1 1 1 1 1 1 1 1 1 1 1 1 1 1 1 1 1 1 1 1 1 1 1 1 1 1 1 1 1 1 1 1 1 1 1 1 1 1 1 1 1 1 1 1 1 1 1 1 1 1 1 1 1 1 1 1 1 1 1 1 1 1 1 1 1 1 1 1 1 