# vtk DataFile Version 3.0
LBM simulation at step 50
ASCII
DATASET STRUCTURED_POINTS
DIMENSIONS 128 128 1
ORIGIN 0 0 0
SPACING 1 1 1
POINT_DATA 16384
SCALARS density float
LOOKUP_TABLE default
0.953485 1.01886 1.02065 1.01739 1.01764 1.01784 1.01768 1.01757 1.0175 1.01743 1.01737 1.01731 1.01725 1.01719 1.01712 1.01705 1.01696 1.01686 1.01672 1.01654 1.0163 1.01598 1.01554 1.01491 1.01397 1.01262 1.01084 1.00871 1.00649 1.00443 1.00276 1.00157 1.00081 1.00038 1.00016 1.00006 1.00002 1.00001 1 1 1 1 1 1 1 1 1 1 1 1 1 1 1 1 1 1 1 1 1 1 1 1 1 1 1 1 1 1 1 1 1 1 1 1 1 1 1 1 1 1 1 1 1 1 1 1 1 1 1 1 1 0.999999 0.999998 0.999992 0.999975 0.999933 0.99984 0.999655 0.999332 0.998821 0.998098 0.997169 0.996079 0.994895 0.993684 0.992493 0.991345 0.990242 0.989181 0.988155 0.987158 0.986186 0.985232 0.984289 0.983352 0.982415 0.981472 0.980517 0.979544 0.978549 0.977506 0.976395 0.97526 0.974435 0.972109 0.97038 0.987436 0.987436 
1.02144 1.01948 1.01569 1.01698 1.01785 1.01778 1.01763 1.01755 1.01747 1.01741 1.01734 1.01728 1.01722 1.01715 1.01708 1.017 1.01691 1.01679 1.01664 1.01645 1.01619 1.01584 1.01537 1.01474 1.01385 1.01262 1.01099 1.00901 1.00686 1.00481 1.00308 1.00179 1.00095 1.00046 1.0002 1.00008 1.00003 1.00001 1 1 1 1 1 1 1 1 1 1 1 1 1 1 1 1 1 1 1 1 1 1 1 1 1 1 1 1 1 1 1 1 1 1 1 1 1 1 1 1 1 1 1 1 1 1 1 1 1 1 1 1 1 0.999999 0.999997 0.999989 0.999969 0.999918 0.999809 0.999599 0.999242 0.998696 0.997942 0.996998 0.995912 0.994751 0.993571 0.99241 0.991283 0.990192 0.989137 0.988112 0.987115 0.986141 0.985183 0.984235 0.983292 0.982346 0.981393 0.980426 0.979439 0.97843 0.977385 0.976241 0.974913 0.973803 0.974014 0.974713 0.972397 0.972397 
1.02879 1.01634 1.01574 1.01827 1.0179 1.01749 1.01751 1.01752 1.01745 1.01737 1.0173 1.01724 1.01717 1.0171 1.01702 1.01693 1.01683 1.0167 1.01654 1.01633 1.01607 1.01572 1.01528 1.01469 1.01388 1.01275 1.01121 1.0093 1.00718 1.0051 1.00331 1.00195 1.00105 1.00051 1.00023 1.00009 1.00003 1.00001 1 1 1 1 1 1 1 1 1 1 1 1 1 1 1 1 1 1 1 1 1 1 1 1 1 1 1 1 1 1 1 1 1 1 1 1 1 1 1 1 1 1 1 1 1 1 1 1 1 1 1 1 1 0.999999 0.999996 0.999988 0.999965 0.99991 0.999794 0.999573 0.999201 0.998635 0.997863 0.996904 0.995812 0.994652 0.993481 0.992335 0.991224 0.990149 0.989106 0.98809 0.987098 0.986125 0.985166 0.984216 0.983267 0.982316 0.981357 0.980384 0.979389 0.97835 0.977274 0.976216 0.975161 0.973873 0.972912 0.970638 0.963618 0.963618 
1.01359 1.01795 1.01998 1.01767 1.01703 1.01754 1.01761 1.01746 1.01737 1.01732 1.01726 1.01719 1.01712 1.01705 1.01696 1.01687 1.01676 1.01662 1.01645 1.01624 1.01598 1.01564 1.01522 1.01468 1.01393 1.01287 1.01141 1.00956 1.00746 1.00536 1.00352 1.0021 1.00114 1.00056 1.00025 1.0001 1.00004 1.00001 1 1 1 1 1 1 1 1 1 1 1 1 1 1 1 1 1 1 1 1 1 1 1 1 1 1 1 1 1 1 1 1 1 1 1 1 1 1 1 1 1 1 1 1 1 1 1 1 1 1 1 1 1 0.999999 0.999996 0.999988 0.999964 0.999908 0.999788 0.999563 0.999185 0.998613 0.997834 0.99687 0.995775 0.994615 0.993448 0.992308 0.991206 0.990141 0.989106 0.988097 0.987109 0.986138 0.985179 0.984228 0.983278 0.982325 0.981361 0.980381 0.979383 0.978364 0.977289 0.976136 0.975049 0.97397 0.972491 0.970019 0.965333 0.965333 
1.0178 1.01847 1.01759 1.01716 1.01773 1.01763 1.01739 1.01735 1.01734 1.01728 1.0172 1.01714 1.01707 1.01699 1.0169 1.0168 1.01669 1.01655 1.01638 1.01616 1.0159 1.01557 1.01517 1.01465 1.01396 1.01298 1.01161 1.00982 1.00774 1.00561 1.00372 1.00224 1.00123 1.00061 1.00027 1.00011 1.00004 1.00001 1 1 1 1 1 1 1 1 1 1 1 1 1 1 1 1 1 1 1 1 1 1 1 1 1 1 1 1 1 1 1 1 1 1 1 1 1 1 1 1 1 1 1 1 1 1 1 1 1 1 1 1 1 0.999999 0.999996 0.999988 0.999964 0.999908 0.99979 0.999566 0.99919 0.998621 0.997845 0.996884 0.995791 0.994634 0.993469 0.992333 0.991236 0.990175 0.989145 0.98814 0.987155 0.986186 0.985228 0.984276 0.983325 0.98237 0.981407 0.980428 0.979424 0.978393 0.977346 0.976253 0.975087 0.973788 0.971918 0.970211 0.968666 0.968666 
1.01871 1.01761 1.01719 1.01781 1.01768 1.01732 1.01734 1.01736 1.01728 1.01721 1.01715 1.01709 1.01701 1.01693 1.01684 1.01674 1.01662 1.01647 1.0163 1.01608 1.01582 1.0155 1.01511 1.01464 1.014 1.0131 1.0118 1.01007 1.00801 1.00586 1.00391 1.00238 1.00131 1.00065 1.00029 1.00012 1.00004 1.00001 1 1 1 1 1 1 1 1 1 1 1 1 1 1 1 1 1 1 1 1 1 1 1 1 1 1 1 1 1 1 1 1 1 1 1 1 1 1 1 1 1 1 1 1 1 1 1 1 1 1 1 1 1 0.999999 0.999996 0.999988 0.999966 0.999912 0.999798 0.999582 0.999216 0.998659 0.997896 0.996944 0.995858 0.994703 0.993539 0.992403 0.991308 0.990251 0.989225 0.988223 0.98724 0.986272 0.985314 0.984362 0.983411 0.982456 0.981492 0.980516 0.979521 0.978494 0.977434 0.976344 0.975165 0.97391 0.972394 0.970849 0.969688 0.969688 
1.01722 1.0175 1.0177 1.01756 1.0173 1.01737 1.01738 1.01727 1.01719 1.01716 1.0171 1.01703 1.01695 1.01687 1.01678 1.01667 1.01655 1.0164 1.01622 1.016 1.01574 1.01543 1.01507 1.01463 1.01405 1.01322 1.012 1.01032 1.00827 1.0061 1.0041 1.0025 1.00138 1.00069 1.00031 1.00013 1.00005 1.00002 1 1 1 1 1 1 1 1 1 1 1 1 1 1 1 1 1 1 1 1 1 1 1 1 1 1 1 1 1 1 1 1 1 1 1 1 1 1 1 1 1 1 1 1 1 1 1 1 1 1 1 1 1 0.999999 0.999997 0.999989 0.999969 0.999919 0.999812 0.999608 0.999259 0.998723 0.997982 0.997049 0.995974 0.994824 0.993659 0.99252 0.991423 0.990367 0.989343 0.988344 0.987363 0.986396 0.985439 0.984487 0.983537 0.982584 0.981622 0.980647 0.979654 0.97864 0.977593 0.976506 0.975328 0.974083 0.972867 0.971503 0.970156 0.970156 
1.01737 1.01745 1.01746 1.01731 1.01734 1.01735 1.01724 1.01719 1.01715 1.0171 1.01703 1.01696 1.01689 1.01681 1.01671 1.0166 1.01647 1.01632 1.01614 1.01592 1.01567 1.01537 1.01502 1.01462 1.01411 1.01336 1.01221 1.01058 1.00853 1.00633 1.00427 1.00262 1.00145 1.00073 1.00033 1.00014 1.00005 1.00002 1 1 1 1 1 1 1 1 1 1 1 1 1 1 1 1 1 1 1 1 1 1 1 1 1 1 1 1 1 1 1 1 1 1 1 1 1 1 1 1 1 1 1 1 1 1 1 1 1 1 1 1 1 0.999999 0.999997 0.999991 0.999972 0.999928 0.99983 0.999642 0.999317 0.99881 0.9981 0.997195 0.996139 0.994997 0.993831 0.992686 0.991584 0.990525 0.989501 0.988503 0.987523 0.986558 0.985602 0.984651 0.983702 0.982751 0.981793 0.980823 0.979836 0.978828 0.97779 0.976718 0.975607 0.974423 0.973241 0.972014 0.970706 0.970706 
1.01745 1.01731 1.01728 1.01729 1.0173 1.01721 1.01717 1.01715 1.01709 1.01703 1.01696 1.0169 1.01682 1.01674 1.01664 1.01653 1.0164 1.01624 1.01606 1.01585 1.0156 1.01531 1.01499 1.01463 1.01418 1.0135 1.01243 1.01083 1.00879 1.00655 1.00444 1.00273 1.00152 1.00076 1.00035 1.00014 1.00005 1.00002 1.00001 1 1 1 1 1 1 1 1 1 1 1 1 1 1 1 1 1 1 1 1 1 1 1 1 1 1 1 1 1 1 1 1 1 1 1 1 1 1 1 1 1 1 1 1 1 1 1 1 1 1 1 1 0.999999 0.999998 0.999992 0.999977 0.999938 0.999852 0.999683 0.999386 0.998916 0.998246 0.997378 0.99635 0.995221 0.994056 0.992905 0.991794 0.990728 0.989701 0.988702 0.987723 0.986759 0.985804 0.984855 0.983908 0.982959 0.982004 0.98104 0.980061 0.979064 0.978042 0.976985 0.975909 0.974797 0.973634 0.972478 0.971296 0.971296 
1.01723 1.01722 1.01723 1.01722 1.01718 1.01714 1.01712 1.01707 1.01701 1.01696 1.0169 1.01683 1.01675 1.01667 1.01657 1.01645 1.01632 1.01617 1.01598 1.01577 1.01553 1.01525 1.01496 1.01465 1.01427 1.01366 1.01265 1.01109 1.00904 1.00676 1.00459 1.00283 1.00157 1.00079 1.00036 1.00015 1.00005 1.00002 1.00001 1 1 1 1 1 1 1 1 1 1 1 1 1 1 1 1 1 1 1 1 1 1 1 1 1 1 1 1 1 1 1 1 1 1 1 1 1 1 1 1 1 1 1 1 1 1 1 1 1 1 1 1 1 0.999998 0.999994 0.999981 0.999948 0.999874 0.999726 0.999462 0.999035 0.998414 0.997594 0.996602 0.995495 0.994336 0.993179 0.992057 0.99098 0.989946 0.988944 0.987964 0.987 0.986047 0.985099 0.984155 0.983209 0.982259 0.981301 0.98033 0.979343 0.978339 0.977309 0.976253 0.975181 0.974072 0.972951 0.971833 0.971833 
1.01716 1.01714 1.01714 1.01712 1.01709 1.01707 1.01704 1.01699 1.01694 1.01689 1.01683 1.01676 1.01668 1.0166 1.01649 1.01638 1.01624 1.01609 1.0159 1.0157 1.01546 1.0152 1.01494 1.01468 1.01437 1.01384 1.01288 1.01135 1.00928 1.00695 1.00473 1.00292 1.00162 1.00082 1.00037 1.00015 1.00006 1.00002 1.00001 1 1 1 1 1 1 1 1 1 1 1 1 1 1 1 1 1 1 1 1 1 1 1 1 1 1 1 1 1 1 1 1 1 1 1 1 1 1 1 1 1 1 1 1 1 1 1 1 1 1 1 1 1 0.999999 0.999995 0.999985 0.999958 0.999897 0.999771 0.999541 0.999161 0.998597 0.997834 0.996891 0.995816 0.99467 0.99351 0.992376 0.991286 0.99024 0.989231 0.988249 0.987284 0.986332 0.985386 0.984444 0.983502 0.982556 0.981605 0.980643 0.979668 0.978678 0.977671 0.976641 0.975592 0.974529 0.973445 0.972356 0.972356 
1.0171 1.01705 1.01705 1.01704 1.01702 1.01699 1.01695 1.01692 1.01687 1.01682 1.01675 1.01669 1.01661 1.01652 1.01642 1.0163 1.01616 1.01601 1.01583 1.01562 1.01539 1.01515 1.01493 1.01474 1.0145 1.01404 1.01313 1.0116 1.00951 1.00714 1.00486 1.00299 1.00166 1.00084 1.00038 1.00015 1.00006 1.00002 1.00001 1 1 1 1 1 1 1 1 1 1 1 1 1 1 1 1 1 1 1 1 1 1 1 1 1 1 1 1 1 1 1 1 1 1 1 1 1 1 1 1 1 1 1 1 1 1 1 1 1 1 1 1 1 0.999999 0.999996 0.999988 0.999967 0.999918 0.999814 0.999619 0.99929 0.998788 0.998091 0.997209 0.996178 0.995055 0.993899 0.992755 0.991649 0.990589 0.989569 0.988581 0.987614 0.986661 0.985717 0.984777 0.983839 0.982899 0.981954 0.981002 0.980039 0.979063 0.978073 0.977068 0.976044 0.975008 0.973956 0.972894 0.972894 
1.01701 1.01697 1.01697 1.01695 1.01694 1.01691 1.01688 1.01684 1.01679 1.01674 1.01668 1.01661 1.01653 1.01644 1.01634 1.01622 1.01608 1.01592 1.01574 1.01554 1.01532 1.01512 1.01495 1.01482 1.01465 1.01426 1.01338 1.01186 1.00973 1.0073 1.00497 1.00306 1.0017 1.00085 1.00039 1.00016 1.00006 1.00002 1.00001 1 1 1 1 1 1 1 1 1 1 1 1 1 1 1 1 1 1 1 1 1 1 1 1 1 1 1 1 1 1 1 1 1 1 1 1 1 1 1 1 1 1 1 1 1 1 1 1 1 1 1 1 1 0.999999 0.999997 0.999992 0.999976 0.999937 0.999854 0.999694 0.999416 0.998979 0.998357 0.997546 0.996573 0.995487 0.994345 0.993196 0.992076 0.990998 0.989964 0.988965 0.987993 0.987038 0.986095 0.985157 0.984223 0.983288 0.98235 0.981406 0.980455 0.979494 0.97852 0.977534 0.976534 0.975521 0.974496 0.973461 0.973461 
1.01693 1.01688 1.01688 1.01687 1.01685 1.01683 1.0168 1.01676 1.01671 1.01666 1.0166 1.01653 1.01645 1.01636 1.01625 1.01613 1.016 1.01584 1.01566 1.01546 1.01527 1.0151 1.01498 1.01493 1.01483 1.01449 1.01364 1.0121 1.00994 1.00745 1.00507 1.00311 1.00173 1.00086 1.00039 1.00016 1.00006 1.00002 1.00001 1 1 1 1 1 1 1 1 1 1 1 1 1 1 1 1 1 1 1 1 1 1 1 1 1 1 1 1 1 1 1 1 1 1 1 1 1 1 1 1 1 1 1 1 1 1 1 1 1 1 1 1 1 1 0.999998 0.999994 0.999983 0.999954 0.999889 0.999762 0.999533 0.999164 0.998621 0.997892 0.996992 0.995958 0.994843 0.9937 0.992569 0.991474 0.990422 0.989409 0.988427 0.987468 0.986523 0.985587 0.984656 0.983726 0.982795 0.98186 0.98092 0.979971 0.979013 0.978045 0.977066 0.976074 0.975073 0.974061 0.974061 
1.01684 1.01679 1.01679 1.01678 1.01676 1.01674 1.01671 1.01667 1.01663 1.01658 1.01651 1.01645 1.01636 1.01627 1.01617 1.01605 1.01591 1.01575 1.01557 1.01539 1.01522 1.0151 1.01506 1.01507 1.01504 1.01474 1.0139 1.01234 1.01012 1.00758 1.00515 1.00316 1.00175 1.00087 1.00039 1.00016 1.00006 1.00002 1.00001 1 1 1 1 1 1 1 1 1 1 1 1 1 1 1 1 1 1 1 1 1 1 1 1 1 1 1 1 1 1 1 1 1 1 1 1 1 1 1 1 1 1 1 1 1 1 1 1 1 1 1 1 1 1 0.999999 0.999996 0.999988 0.999967 0.999919 0.999821 0.999639 0.999336 0.998875 0.998236 0.99742 0.996455 0.995385 0.994262 0.99313 0.99202 0.990949 0.989919 0.988924 0.987956 0.987007 0.98607 0.985142 0.984216 0.983292 0.982366 0.981436 0.9805 0.979557 0.978605 0.977644 0.976674 0.975693 0.974704 0.974704 
1.01675 1.0167 1.01669 1.01668 1.01667 1.01665 1.01662 1.01658 1.01654 1.01649 1.01642 1.01636 1.01627 1.01618 1.01608 1.01595 1.01581 1.01566 1.01549 1.01533 1.0152 1.01514 1.01517 1.01525 1.01528 1.01501 1.01415 1.01255 1.01028 1.00769 1.00521 1.00319 1.00176 1.00088 1.0004 1.00016 1.00006 1.00002 1.00001 1 1 1 1 1 1 1 1 1 1 1 1 1 1 1 1 1 1 1 1 1 1 1 1 1 1 1 1 1 1 1 1 1 1 1 1 1 1 1 1 1 1 1 1 1 1 1 1 1 1 1 1 1 1 0.999999 0.999998 0.999992 0.999978 0.999943 0.99987 0.999731 0.999489 0.99911 0.998565 0.997846 0.996966 0.995959 0.994873 0.993754 0.992639 0.991552 0.990503 0.989491 0.98851 0.987554 0.986614 0.985686 0.984764 0.983845 0.982927 0.982007 0.981084 0.980155 0.979219 0.978276 0.977325 0.976366 0.975398 0.975398 
1.01665 1.01659 1.01659 1.01658 1.01657 1.01655 1.01652 1.01649 1.01644 1.01639 1.01633 1.01626 1.01618 1.01609 1.01598 1.01585 1.01571 1.01556 1.01542 1.01529 1.01522 1.01523 1.01533 1.01547 1.01554 1.01527 1.01439 1.01275 1.01042 1.00778 1.00526 1.00322 1.00178 1.00088 1.0004 1.00016 1.00006 1.00002 1.00001 1 1 1 1 1 1 1 1 1 1 1 1 1 1 1 1 1 1 1 1 1 1 1 1 1 1 1 1 1 1 1 1 1 1 1 1 1 1 1 1 1 1 1 1 1 1 1 1 1 1 1 1 1 1 1 0.999999 0.999995 0.999986 0.999962 0.99991 0.999807 0.999621 0.999319 0.998869 0.998253 0.997472 0.996549 0.995522 0.994434 0.993328 0.992233 0.991167 0.990137 0.989141 0.988173 0.987227 0.986297 0.985376 0.984462 0.98355 0.98264 0.981727 0.980812 0.979893 0.978967 0.978036 0.977097 0.976151 0.976151 
1.01654 1.01648 1.01648 1.01648 1.01647 1.01645 1.01642 1.01639 1.01634 1.0163 1.01623 1.01617 1.01608 1.01599 1.01587 1.01575 1.01561 1.01548 1.01537 1.01529 1.01529 1.01537 1.01553 1.01572 1.01581 1.01553 1.01461 1.01291 1.01054 1.00785 1.0053 1.00323 1.00178 1.00089 1.0004 1.00016 1.00006 1.00002 1.00001 1 1 1 1 1 1 1 1 1 1 1 1 1 1 1 1 1 1 1 1 1 1 1 1 1 1 1 1 1 1 1 1 1 1 1 1 1 1 1 1 1 1 1 1 1 1 1 1 1 1 1 1 1 1 1 0.999999 0.999997 0.999991 0.999976 0.99994 0.999867 0.99973 0.999498 0.999139 0.998629 0.997957 0.997135 0.996188 0.995155 0.994076 0.992988 0.991914 0.990869 0.989857 0.988875 0.987919 0.986983 0.986062 0.98515 0.984244 0.983341 0.98244 0.981538 0.980634 0.979726 0.978814 0.977898 0.976975 0.976975 
1.01643 1.01636 1.01637 1.01637 1.01636 1.01634 1.01631 1.01628 1.01624 1.01619 1.01613 1.01606 1.01597 1.01587 1.01576 1.01564 1.01552 1.01542 1.01536 1.01535 1.01541 1.01556 1.01577 1.01599 1.01607 1.01576 1.0148 1.01305 1.01062 1.0079 1.00532 1.00325 1.00179 1.00089 1.0004 1.00016 1.00006 1.00002 1.00001 1 1 1 1 1 1 1 1 1 1 1 1 1 1 1 1 1 1 1 1 1 1 1 1 1 1 1 1 1 1 1 1 1 1 1 1 1 1 1 1 1 1 1 1 1 1 1 1 1 1 1 1 1 1 1 1 0.999998 0.999995 0.999985 0.999962 0.999912 0.999816 0.999645 0.99937 0.998963 0.998405 0.997696 0.996849 0.995894 0.994868 0.993806 0.992739 0.991688 0.990663 0.989668 0.988701 0.987757 0.986832 0.985921 0.985019 0.984123 0.983232 0.982342 0.981454 0.980564 0.979673 0.978778 0.977881 0.977881 
1.01631 1.01622 1.01624 1.01624 1.01624 1.01622 1.0162 1.01617 1.01613 1.01608 1.01601 1.01594 1.01585 1.01576 1.01565 1.01555 1.01546 1.01541 1.0154 1.01546 1.01559 1.01579 1.01604 1.01627 1.01632 1.01597 1.01496 1.01316 1.01069 1.00793 1.00534 1.00325 1.00179 1.00089 1.0004 1.00016 1.00006 1.00002 1.00001 1 1 1 1 1 1 1 1 1 1 1 1 1 1 1 1 1 1 1 1 1 1 1 1 1 1 1 1 1 1 1 1 1 1 1 1 1 1 1 1 1 1 1 1 1 1 1 1 1 1 1 1 1 1 1 1 0.999999 0.999997 0.999991 0.999977 0.999945 0.99988 0.99976 0.999558 0.999246 0.998802 0.998212 0.997482 0.996628 0.995679 0.994669 0.99363 0.992588 0.991561 0.990557 0.98958 0.988629 0.987699 0.986786 0.985887 0.984999 0.984117 0.98324 0.982367 0.981496 0.980626 0.979757 0.978887 0.978887 
1.01616 1.01607 1.0161 1.01611 1.01611 1.0161 1.01608 1.01605 1.016 1.01596 1.01589 1.01582 1.01573 1.01565 1.01556 1.0155 1.01546 1.01546 1.01552 1.01565 1.01583 1.01607 1.01632 1.01653 1.01655 1.01615 1.01508 1.01324 1.01074 1.00796 1.00535 1.00326 1.00179 1.00089 1.0004 1.00016 1.00006 1.00002 1.00001 1 1 1 1 1 1 1 1 1 1 1 1 1 1 1 1 1 1 1 1 1 1 1 1 1 1 1 1 1 1 1 1 1 1 1 1 1 1 1 1 1 1 1 1 1 1 1 1 1 1 1 1 1 1 1 1 1 0.999999 0.999995 0.999987 0.999968 0.999926 0.999846 0.999704 0.999476 0.999137 0.998668 0.998063 0.997327 0.996481 0.99555 0.994565 0.993555 0.992541 0.99154 0.99056 0.989604 0.988671 0.987758 0.986862 0.98598 0.985109 0.984246 0.983391 0.98254 0.981695 0.980853 0.980016 0.980016 
1.016 1.01592 1.01595 1.01597 1.01597 1.01596 1.01595 1.01592 1.01588 1.01583 1.01577 1.0157 1.01563 1.01557 1.01553 1.01551 1.01552 1.01559 1.01571 1.01589 1.01611 1.01635 1.01659 1.01677 1.01674 1.01629 1.01518 1.01329 1.01077 1.00797 1.00536 1.00326 1.00179 1.00089 1.0004 1.00016 1.00006 1.00002 1.00001 1 1 1 1 1 1 1 1 1 1 1 1 1 1 1 1 1 1 1 1 1 1 1 1 1 1 1 1 1 1 1 1 1 1 1 1 1 1 1 1 1 1 1 1 1 1 1 1 1 1 1 1 1 1 1 1 1 0.999999 0.999998 0.999993 0.999982 0.999957 0.999906 0.999812 0.999654 0.999407 0.999052 0.998572 0.997966 0.99724 0.996414 0.995512 0.994561 0.993585 0.992605 0.991635 0.990682 0.989751 0.988841 0.987951 0.987078 0.986219 0.985373 0.984538 0.983712 0.982895 0.982087 0.981287 0.981287 
1.01582 1.01577 1.01581 1.01583 1.01584 1.01583 1.01582 1.01579 1.01576 1.01572 1.01567 1.01562 1.01558 1.01556 1.01556 1.0156 1.01567 1.0158 1.01597 1.01617 1.0164 1.01663 1.01683 1.01696 1.01689 1.01639 1.01524 1.01333 1.01078 1.00798 1.00536 1.00326 1.00179 1.00089 1.0004 1.00016 1.00006 1.00002 1.00001 1 1 1 1 1 1 1 1 1 1 1 1 1 1 1 1 1 1 1 1 1 1 1 1 1 1 1 1 1 1 1 1 1 1 1 1 1 1 1 1 1 1 1 1 1 1 1 1 1 1 1 1 1 1 1 1 1 1 0.999999 0.999997 0.999991 0.999976 0.999946 0.999887 0.999783 0.999614 0.999358 0.998997 0.998521 0.997928 0.997226 0.996433 0.99557 0.994661 0.993727 0.992787 0.991854 0.990935 0.990035 0.989155 0.988295 0.987453 0.986628 0.985817 0.98502 0.984237 0.983467 0.982712 0.982712 
1.01566 1.01566 1.0157 1.01572 1.01573 1.01573 1.01572 1.0157 1.01567 1.01565 1.01563 1.01561 1.01561 1.01564 1.01569 1.01578 1.0159 1.01607 1.01625 1.01646 1.01667 1.01687 1.01704 1.01712 1.01699 1.01646 1.01528 1.01335 1.0108 1.00798 1.00536 1.00326 1.00179 1.00089 1.0004 1.00016 1.00006 1.00002 1.00001 1 1 1 1 1 1 1 1 1 1 1 1 1 1 1 1 1 1 1 1 1 1 1 1 1 1 1 1 1 1 1 1 1 1 1 1 1 1 1 1 1 1 1 1 1 1 1 1 1 1 1 1 1 1 1 1 1 1 1 0.999998 0.999995 0.999988 0.999971 0.999937 0.999873 0.999763 0.999589 0.999332 0.998978 0.998519 0.997952 0.997287 0.996539 0.995725 0.994868 0.993985 0.993093 0.992205 0.991329 0.99047 0.989629 0.988809 0.988009 0.987228 0.986465 0.985722 0.984998 0.984294 0.984294 
1.01558 1.01562 1.01566 1.01567 1.01568 1.01568 1.01568 1.01567 1.01567 1.01567 1.01567 1.0157 1.01574 1.01581 1.0159 1.01603 1.01619 1.01636 1.01655 1.01674 1.01692 1.01707 1.01719 1.01723 1.01707 1.0165 1.01531 1.01336 1.0108 1.00799 1.00536 1.00326 1.00179 1.00089 1.0004 1.00016 1.00006 1.00002 1.00001 1 1 1 1 1 1 1 1 1 1 1 1 1 1 1 1 1 1 1 1 1 1 1 1 1 1 1 1 1 1 1 1 1 1 1 1 1 1 1 1 1 1 1 1 1 1 1 1 1 1 1 1 1 1 1 1 1 1 1 0.999999 0.999998 0.999994 0.999986 0.999967 0.99993 0.999863 0.999752 0.999581 0.999334 0.998998 0.998566 0.998039 0.997423 0.99673 0.995977 0.995182 0.994361 0.993528 0.992696 0.991874 0.991067 0.990278 0.989511 0.988766 0.988045 0.987347 0.986674 0.98603 0.98603 
1.01561 1.0157 1.01572 1.01572 1.01573 1.01573 1.01573 1.01574 1.01576 1.01578 1.01582 1.01588 1.01596 1.01606 1.01618 1.01633 1.01649 1.01666 1.01682 1.01698 1.01711 1.01722 1.0173 1.0173 1.01711 1.01653 1.01532 1.01337 1.0108 1.00799 1.00537 1.00326 1.00179 1.00089 1.0004 1.00016 1.00006 1.00002 1.00001 1 1 1 1 1 1 1 1 1 1 1 1 1 1 1 1 1 1 1 1 1 1 1 1 1 1 1 1 1 1 1 1 1 1 1 1 1 1 1 1 1 1 1 1 1 1 1 1 1 1 1 1 1 1 1 1 1 1 1 1 0.999999 0.999998 0.999993 0.999984 0.999964 0.999927 0.999861 0.999754 0.999592 0.999362 0.999054 0.998661 0.998184 0.997627 0.997002 0.996321 0.995599 0.994852 0.994091 0.99333 0.992575 0.991836 0.991115 0.990417 0.989746 0.989102 0.98849 0.987913 0.987913 
1.01577 1.0159 1.01589 1.01588 1.01588 1.01589 1.0159 1.01592 1.01595 1.016 1.01606 1.01615 1.01624 1.01636 1.01649 1.01663 1.01677 1.01692 1.01705 1.01716 1.01726 1.01733 1.01737 1.01735 1.01714 1.01655 1.01533 1.01337 1.01081 1.00799 1.00537 1.00326 1.00179 1.00089 1.0004 1.00016 1.00006 1.00002 1.00001 1 1 1 1 1 1 1 1 1 1 1 1 1 1 1 1 1 1 1 1 1 1 1 1 1 1 1 1 1 1 1 1 1 1 1 1 1 1 1 1 1 1 1 1 1 1 1 1 1 1 1 1 1 1 1 1 1 1 1 1 1 0.999999 0.999997 0.999993 0.999983 0.999964 0.999927 0.999866 0.999767 0.999621 0.999416 0.999142 0.998797 0.998378 0.997891 0.997343 0.996745 0.99611 0.995449 0.994775 0.9941 0.993431 0.992777 0.992143 0.991536 0.990959 0.990417 0.989916 0.989916 
1.01605 1.01618 1.01615 1.01613 1.01613 1.01614 1.01616 1.01619 1.01623 1.01629 1.01636 1.01645 1.01655 1.01667 1.01678 1.0169 1.01702 1.01712 1.01721 1.01729 1.01735 1.01739 1.01742 1.01737 1.01716 1.01655 1.01533 1.01337 1.01081 1.00799 1.00537 1.00326 1.00179 1.00089 1.0004 1.00016 1.00006 1.00002 1.00001 1 1 1 1 1 1 1 1 1 1 1 1 1 1 1 1 1 1 1 1 1 1 1 1 1 1 1 1 1 1 1 1 1 1 1 1 1 1 1 1 1 1 1 1 1 1 1 1 1 1 1 1 1 1 1 1 1 1 1 1 1 1 0.999999 0.999997 0.999993 0.999983 0.999965 0.999932 0.999877 0.999791 0.999664 0.999488 0.999256 0.998964 0.998611 0.9982 0.997737 0.997231 0.996692 0.996132 0.995559 0.994986 0.99442 0.993871 0.993345 0.992849 0.992389 0.991973 0.991973 
1.01638 1.0165 1.01646 1.01644 1.01643 1.01644 1.01646 1.0165 1.01654 1.0166 1.01667 1.01676 1.01684 1.01694 1.01703 1.01712 1.0172 1.01727 1.01733 1.01737 1.01741 1.01743 1.01744 1.01739 1.01716 1.01656 1.01533 1.01337 1.01081 1.00799 1.00537 1.00326 1.00179 1.00089 1.0004 1.00016 1.00006 1.00002 1.00001 1 1 1 1 1 1 1 1 1 1 1 1 1 1 1 1 1 1 1 1 1 1 1 1 1 1 1 1 1 1 1 1 1 1 1 1 1 1 1 1 1 1 1 1 1 1 1 1 1 1 1 1 1 1 1 1 1 1 1 1 1 1 1 0.999999 0.999997 0.999993 0.999985 0.999969 0.99994 0.999894 0.999822 0.999718 0.999574 0.999385 0.999149 0.998864 0.998532 0.998159 0.997751 0.997317 0.996865 0.996405 0.995946 0.995498 0.995068 0.994665 0.994296 0.993968 0.993968 
1.01671 1.0168 1.01677 1.01674 1.01674 1.01674 1.01676 1.01679 1.01683 1.01689 1.01694 1.01701 1.01707 1.01715 1.01721 1.01727 1.01732 1.01736 1.0174 1.01742 1.01744 1.01745 1.01745 1.01739 1.01716 1.01656 1.01533 1.01337 1.01081 1.00799 1.00537 1.00326 1.00179 1.00089 1.0004 1.00016 1.00006 1.00002 1.00001 1 1 1 1 1 1 1 1 1 1 1 1 1 1 1 1 1 1 1 1 1 1 1 1 1 1 1 1 1 1 1 1 1 1 1 1 1 1 1 1 1 1 1 1 1 1 1 1 1 1 1 1 1 1 1 1 1 1 1 1 1 1 1 1 0.999999 0.999997 0.999994 0.999987 0.999973 0.99995 0.999913 0.999857 0.999775 0.999664 0.999519 0.999337 0.999119 0.998866 0.998581 0.998271 0.997941 0.9976 0.997255 0.996915 0.996589 0.996283 0.996006 0.995764 0.995764 
1.01698 1.01705 1.01702 1.017 1.017 1.017 1.01702 1.01704 1.01707 1.01711 1.01715 1.0172 1.01724 1.01729 1.01733 1.01737 1.01739 1.01742 1.01744 1.01745 1.01746 1.01746 1.01745 1.0174 1.01717 1.01656 1.01533 1.01337 1.01081 1.00799 1.00537 1.00326 1.00179 1.00089 1.0004 1.00016 1.00006 1.00002 1.00001 1 1 1 1 1 1 1 1 1 1 1 1 1 1 1 1 1 1 1 1 1 1 1 1 1 1 1 1 1 1 1 1 1 1 1 1 1 1 1 1 1 1 1 1 1 1 1 1 1 1 1 1 1 1 1 1 1 1 1 1 1 1 1 1 1 0.999999 0.999998 0.999995 0.999989 0.999979 0.999961 0.999933 0.999891 0.999831 0.99975 0.999644 0.999513 0.999356 0.999175 0.998972 0.998752 0.998519 0.998282 0.998045 0.997816 0.997602 0.997409 0.997244 0.997244 
1.01719 1.01723 1.01721 1.0172 1.01719 1.0172 1.01721 1.01722 1.01724 1.01727 1.0173 1.01733 1.01735 1.01738 1.0174 1.01742 1.01743 1.01745 1.01745 1.01746 1.01746 1.01747 1.01746 1.0174 1.01717 1.01656 1.01533 1.01337 1.01081 1.00799 1.00537 1.00326 1.00179 1.00089 1.0004 1.00016 1.00006 1.00002 1.00001 1 1 1 1 1 1 1 1 1 1 1 1 1 1 1 1 1 1 1 1 1 1 1 1 1 1 1 1 1 1 1 1 1 1 1 1 1 1 1 1 1 1 1 1 1 1 1 1 1 1 1 1 1 1 1 1 1 1 1 1 1 1 1 1 1 1 0.999999 0.999998 0.999996 0.999992 0.999984 0.999972 0.999952 0.999923 0.999881 0.999826 0.999754 0.999666 0.99956 0.999439 0.999305 0.999162 0.999012 0.998861 0.998715 0.998577 0.998454 0.998351 0.998351 
1.01732 1.01735 1.01733 1.01732 1.01732 1.01732 1.01733 1.01734 1.01735 1.01737 1.01738 1.0174 1.01741 1.01743 1.01744 1.01745 1.01745 1.01746 1.01746 1.01747 1.01747 1.01747 1.01746 1.0174 1.01717 1.01656 1.01533 1.01337 1.01081 1.00799 1.00537 1.00326 1.00179 1.00089 1.0004 1.00016 1.00006 1.00002 1.00001 1 1 1 1 1 1 1 1 1 1 1 1 1 1 1 1 1 1 1 1 1 1 1 1 1 1 1 1 1 1 1 1 1 1 1 1 1 1 1 1 1 1 1 1 1 1 1 1 1 1 1 1 1 1 1 1 1 1 1 1 1 1 1 1 1 1 1 0.999999 0.999999 0.999997 0.999994 0.999989 0.999981 0.999968 0.999949 0.999922 0.999887 0.999842 0.999786 0.999721 0.999647 0.999566 0.999481 0.999394 0.999308 0.999228 0.999157 0.999097 0.999097 
1.0174 1.01741 1.01741 1.0174 1.0174 1.0174 1.0174 1.01741 1.01741 1.01742 1.01743 1.01744 1.01744 1.01745 1.01746 1.01746 1.01746 1.01747 1.01747 1.01747 1.01747 1.01747 1.01746 1.0174 1.01717 1.01656 1.01533 1.01337 1.01081 1.00799 1.00537 1.00326 1.00179 1.00089 1.0004 1.00016 1.00006 1.00002 1.00001 1 1 1 1 1 1 1 1 1 1 1 1 1 1 1 1 1 1 1 1 1 1 1 1 1 1 1 1 1 1 1 1 1 1 1 1 1 1 1 1 1 1 1 1 1 1 1 1 1 1 1 1 1 1 1 1 1 1 1 1 1 1 1 1 1 1 1 1 1 0.999999 0.999998 0.999996 0.999993 0.999988 0.99998 0.999969 0.999953 0.999932 0.999906 0.999874 0.999837 0.999796 0.999752 0.999706 0.999661 0.999619 0.999581 0.99955 0.99955 
1.01744 1.01744 1.01744 1.01744 1.01744 1.01744 1.01744 1.01744 1.01744 1.01745 1.01745 1.01746 1.01746 1.01746 1.01746 1.01747 1.01747 1.01747 1.01747 1.01747 1.01747 1.01747 1.01746 1.0174 1.01717 1.01656 1.01533 1.01337 1.01081 1.00799 1.00537 1.00326 1.00179 1.00089 1.0004 1.00016 1.00006 1.00002 1.00001 1 1 1 1 1 1 1 1 1 1 1 1 1 1 1 1 1 1 1 1 1 1 1 1 1 1 1 1 1 1 1 1 1 1 1 1 1 1 1 1 1 1 1 1 1 1 1 1 1 1 1 1 1 1 1 1 1 1 1 1 1 1 1 1 1 1 1 1 1 1 0.999999 0.999999 0.999998 0.999996 0.999993 0.999989 0.999982 0.999974 0.999962 0.999948 0.999932 0.999913 0.999892 0.999871 0.999849 0.999829 0.999811 0.999796 0.999796 
1.01745 1.01746 1.01746 1.01746 1.01746 1.01746 1.01746 1.01746 1.01746 1.01746 1.01746 1.01747 1.01746 1.01747 1.01747 1.01747 1.01747 1.01747 1.01747 1.01747 1.01747 1.01747 1.01746 1.0174 1.01717 1.01656 1.01533 1.01337 1.01081 1.00799 1.00537 1.00326 1.00179 1.00089 1.0004 1.00016 1.00006 1.00002 1.00001 1 1 1 1 1 1 1 1 1 1 1 1 1 1 1 1 1 1 1 1 1 1 1 1 1 1 1 1 1 1 1 1 1 1 1 1 1 1 1 1 1 1 1 1 1 1 1 1 1 1 1 1 1 1 1 1 1 1 1 1 1 1 1 1 1 1 1 1 1 1 1 1 0.999999 0.999999 0.999998 0.999996 0.999994 0.999991 0.999986 0.999981 0.999974 0.999966 0.999958 0.999949 0.999939 0.999931 0.999923 0.999916 0.999916 
1.01746 1.01746 1.01747 1.01746 1.01746 1.01746 1.01746 1.01747 1.01746 1.01747 1.01746 1.01747 1.01747 1.01747 1.01747 1.01747 1.01747 1.01747 1.01747 1.01747 1.01747 1.01747 1.01746 1.0174 1.01717 1.01656 1.01533 1.01337 1.01081 1.00799 1.00537 1.00326 1.00179 1.00089 1.0004 1.00016 1.00006 1.00002 1.00001 1 1 1 1 1 1 1 1 1 1 1 1 1 1 1 1 1 1 1 1 1 1 1 1 1 1 1 1 1 1 1 1 1 1 1 1 1 1 1 1 1 1 1 1 1 1 1 1 1 1 1 1 1 1 1 1 1 1 1 1 1 1 1 1 1 1 1 1 1 1 1 1 1 1 0.999999 0.999999 0.999998 0.999997 0.999996 0.999994 0.999991 0.999988 0.999985 0.999982 0.999978 0.999975 0.999972 0.999969 0.999969 
1.01747 1.01747 1.01747 1.01747 1.01747 1.01747 1.01747 1.01747 1.01747 1.01747 1.01747 1.01747 1.01747 1.01747 1.01747 1.01747 1.01747 1.01747 1.01747 1.01747 1.01747 1.01747 1.01746 1.0174 1.01717 1.01656 1.01533 1.01337 1.01081 1.00799 1.00537 1.00326 1.00179 1.00089 1.0004 1.00016 1.00006 1.00002 1.00001 1 1 1 1 1 1 1 1 1 1 1 1 1 1 1 1 1 1 1 1 1 1 1 1 1 1 1 1 1 1 1 1 1 1 1 1 1 1 1 1 1 1 1 1 1 1 1 1 1 1 1 1 1 1 1 1 1 1 1 1 1 1 1 1 1 1 1 1 1 1 1 1 1 1 1 1 1 0.999999 0.999999 0.999998 0.999997 0.999996 0.999995 0.999994 0.999993 0.999992 0.999991 0.99999 0.99999 
1.01747 1.01747 1.01747 1.01747 1.01747 1.01747 1.01747 1.01747 1.01747 1.01747 1.01747 1.01747 1.01747 1.01747 1.01747 1.01747 1.01747 1.01747 1.01747 1.01747 1.01747 1.01747 1.01746 1.0174 1.01717 1.01656 1.01533 1.01337 1.01081 1.00799 1.00537 1.00326 1.00179 1.00089 1.0004 1.00016 1.00006 1.00002 1.00001 1 1 1 1 1 1 1 1 1 1 1 1 1 1 1 1 1 1 1 1 1 1 1 1 1 1 1 1 1 1 1 1 1 1 1 1 1 1 1 1 1 1 1 1 1 1 1 1 1 1 1 1 1 1 1 1 1 1 1 1 1 1 1 1 1 1 1 1 1 1 1 1 1 1 1 1 1 1 1 1 0.999999 0.999999 0.999999 0.999998 0.999998 0.999998 0.999997 0.999997 0.999997 
1.01747 1.01747 1.01747 1.01747 1.01747 1.01747 1.01747 1.01747 1.01747 1.01747 1.01747 1.01747 1.01747 1.01747 1.01747 1.01747 1.01747 1.01747 1.01747 1.01747 1.01747 1.01747 1.01746 1.0174 1.01717 1.01656 1.01533 1.01337 1.01081 1.00799 1.00537 1.00326 1.00179 1.00089 1.0004 1.00016 1.00006 1.00002 1.00001 1 1 1 1 1 1 1 1 1 1 1 1 1 1 1 1 1 1 1 1 1 1 1 1 1 1 1 1 1 1 1 1 1 1 1 1 1 1 1 1 1 1 1 1 1 1 1 1 1 1 1 1 1 1 1 1 1 1 1 1 1 1 1 1 1 1 1 1 1 1 1 1 1 1 1 1 1 1 1 1 1 1 1 1 0.999999 0.999999 0.999999 0.999999 0.999999 
1.01747 1.01747 1.01747 1.01747 1.01747 1.01747 1.01747 1.01747 1.01747 1.01747 1.01747 1.01747 1.01747 1.01747 1.01747 1.01747 1.01747 1.01747 1.01747 1.01747 1.01747 1.01747 1.01746 1.0174 1.01717 1.01656 1.01533 1.01337 1.01081 1.00799 1.00537 1.00326 1.00179 1.00089 1.0004 1.00016 1.00006 1.00002 1.00001 1 1 1 1 1 1 1 1 1 1 1 1 1 1 1 1 1 1 1 1 1 1 1 1 1 1 1 1 1 1 1 1 1 1 1 1 1 1 1 1 1 1 1 1 1 1 1 1 1 1 1 1 1 1 1 1 1 1 1 1 1 1 1 1 1 1 1 1 1 1 1 1 1 1 1 1 1 1 1 1 1 1 1 1 1 1 1 1 1 
1.01747 1.01747 1.01747 1.01747 1.01747 1.01747 1.01747 1.01747 1.01747 1.01747 1.01747 1.01747 1.01747 1.01747 1.01747 1.01747 1.01747 1.01747 1.01747 1.01747 1.01747 1.01747 1.01746 1.0174 1.01717 1.01656 1.01533 1.01337 1.01081 1.00799 1.00537 1.00326 1.00179 1.00089 1.0004 1.00016 1.00006 1.00002 1.00001 1 1 1 1 1 1 1 1 1 1 1 1 1 1 1 1 1 1 1 1 1 1 1 1 1 1 1 1 1 1 1 1 1 1 1 1 1 1 1 1 1 1 1 1 1 1 1 1 1 1 1 1 1 1 1 1 1 1 1 1 1 1 1 1 1 1 1 1 1 1 1 1 1 1 1 1 1 1 1 1 1 1 1 1 1 1 1 1 1 
1.01747 1.01747 1.01747 1.01747 1.01747 1.01747 1.01747 1.01747 1.01747 1.01747 1.01747 1.01747 1.01747 1.01747 1.01747 1.01747 1.01747 1.01747 1.01747 1.01747 1.01747 1.01747 1.01746 1.0174 1.01717 1.01656 1.01533 1.01337 1.01081 1.00799 1.00537 1.00326 1.00179 1.00089 1.0004 1.00016 1.00006 1.00002 1.00001 1 1 1 1 1 1 1 1 1 1 1 1 1 1 1 1 1 1 1 1 1 1 1 1 1 1 1 1 1 1 1 1 1 1 1 1 1 1 1 1 1 1 1 1 1 1 1 1 1 1 1 1 1 1 1 1 1 1 1 1 1 1 1 1 1 1 1 1 1 1 1 1 1 1 1 1 1 1 1 1 1 1 1 1 1 1 1 1 1 
1.01747 1.01747 1.01747 1.01747 1.01747 1.01747 1.01747 1.01747 1.01747 1.01747 1.01747 1.01747 1.01747 1.01747 1.01747 1.01747 1.01747 1.01747 1.01747 1.01747 1.01747 1.01747 1.01746 1.0174 1.01717 1.01656 1.01533 1.01337 1.01081 1.00799 1.00537 1.00326 1.00179 1.00089 1.0004 1.00016 1.00006 1.00002 1.00001 1 1 1 1 1 1 1 1 1 1 1 1 1 1 1 1 1 1 1 1 1 1 1 1 1 1 1 1 1 1 1 1 1 1 1 1 1 1 1 1 1 1 1 1 1 1 1 1 1 1 1 1 1 1 1 1 1 1 1 1 1 1 1 1 1 1 1 1 1 1 1 1 1 1 1 1 1 1 1 1 1 1 1 1 1 1 1 1 1 