# vtk DataFile Version 3.0
LBM simulation at step 170
ASCII
DATASET STRUCTURED_POINTS
DIMENSIONS 256 256 1
ORIGIN 0 0 0
SPACING 1 1 1
POINT_DATA 65536
SCALARS density float
LOOKUP_TABLE default
0.74126 1.08768 1.13438 1.09213 1.08391 1.09272 1.09447 1.09265 1.09204 1.09218 1.09213 1.09194 1.0918 1.09171 1.09161 1.09152 1.09143 1.09135 1.09127 1.09119 1.09112 1.09106 1.09099 1.09093 1.09087 1.09082 1.09076 1.09071 1.09066 1.09061 1.09056 1.09052 1.09047 1.09043 1.09039 1.09035 1.09031 1.09027 1.09023 1.09019 1.09015 1.09011 1.09007 1.09004 1.09 1.08996 1.08992 1.08989 1.08985 1.08981 1.08977 1.08974 1.0897 1.08966 1.08962 1.08958 1.08954 1.0895 1.08946 1.08942 1.08938 1.08934 1.08929 1.08925 1.0892 1.08915 1.08911 1.08906 1.089 1.08895 1.0889 1.08884 1.08878 1.08872 1.08865 1.08859 1.08852 1.08844 1.08836 1.08828 1.08819 1.08809 1.088 1.08791 1.08781 1.08773 1.08764 1.08754 1.08739 1.08713 1.08663 1.08572 1.08417 1.08171 1.07804 1.07294 1.06635 1.05842 1.04955 1.04035 1.0315 1.02356 1.01691 1.01167 1.00776 1.00499 1.0031 1.00187 1.0011 1.00062 1.00034 1.00018 1.0001 1.00005 1.00002 1.00001 1.00001 1 1 1 1 1 1 1 1 1 1 1 1 1 1 1 1 1 1 1 1 1 1 1 1 0.999999 0.999998 0.999996 0.999992 0.999986 0.999974 0.999955 0.999924 0.999875 0.9998 0.999689 0.999529 0.999307 0.999007 0.998614 0.998114 0.997496 0.996753 0.995884 0.994892 0.993788 0.992587 0.991309 0.989975 0.98861 0.987234 0.98587 0.984533 0.983238 0.981992 0.980802 0.979666 0.978585 0.977553 0.976564 0.975614 0.974696 0.973804 0.972934 0.972083 0.971246 0.970423 0.969611 0.968809 0.968016 0.967231 0.966453 0.965682 0.964917 0.964156 0.963401 0.962649 0.961901 0.961156 0.960413 0.959672 0.958933 0.958195 0.957458 0.95672 0.955983 0.955245 0.954507 0.953767 0.953025 0.952281 0.951534 0.950784 0.950031 0.949274 0.948512 0.947746 0.946974 0.946196 0.945411 0.94462 0.94382 0.943011 0.942194 0.941366 0.940527 0.939676 0.938811 0.937933 0.937038 0.936127 0.935197 0.934246 0.933273 0.932274 0.931249 0.930193 0.929103 0.927975 0.926805 0.925587 0.924315 0.922981 0.921577 0.920089 0.918506 0.916809 0.914976 0.912977 0.91078 0.908334 0.905523 0.902251 0.898608 0.894189 0.886951 0.877605 0.872928 0.850893 0.694531 
1.13076 1.06411 1.05916 1.09428 1.09771 1.09221 1.09131 1.09243 1.09252 1.09215 1.09196 1.09189 1.09179 1.09168 1.09158 1.09149 1.09141 1.09133 1.09125 1.09118 1.0911 1.09104 1.09097 1.09092 1.09085 1.0908 1.09074 1.0907 1.09064 1.0906 1.09055 1.0905 1.09046 1.09042 1.09037 1.09033 1.09029 1.09025 1.09021 1.09017 1.09013 1.09009 1.09005 1.09002 1.08998 1.08994 1.0899 1.08986 1.08983 1.08979 1.08975 1.08971 1.08967 1.08963 1.08959 1.08955 1.08951 1.08947 1.08943 1.08939 1.08934 1.0893 1.08925 1.08921 1.08916 1.08911 1.08906 1.08901 1.08895 1.0889 1.08884 1.08878 1.08872 1.08865 1.08858 1.08851 1.08844 1.08836 1.08827 1.08818 1.08808 1.08798 1.08788 1.08777 1.08766 1.08755 1.08742 1.08727 1.08704 1.08667 1.08605 1.08501 1.08335 1.08084 1.07726 1.07241 1.06622 1.0588 1.05042 1.04161 1.03294 1.025 1.01819 1.01272 1.00857 1.00557 1.00351 1.00214 1.00126 1.00073 1.0004 1.00022 1.00012 1.00006 1.00003 1.00001 1.00001 1 1 1 1 1 1 1 1 1 1 1 1 1 1 1 1 1 1 1 1 1 1 1 0.999999 0.999999 0.999998 0.999995 0.999991 0.999983 0.999971 0.999949 0.999914 0.99986 0.999778 0.999658 0.999488 0.999252 0.998938 0.998529 0.998014 0.997382 0.996627 0.99575 0.994754 0.993651 0.992456 0.991187 0.989867 0.988516 0.987157 0.985809 0.984487 0.983205 0.981971 0.980788 0.979659 0.978581 0.977551 0.976563 0.975612 0.974692 0.973799 0.972928 0.972075 0.971238 0.970413 0.969601 0.968798 0.968004 0.967219 0.96644 0.965669 0.964903 0.964142 0.963386 0.962633 0.961885 0.961139 0.960396 0.959654 0.958914 0.958175 0.957437 0.956699 0.955961 0.955223 0.954483 0.953742 0.952999 0.952254 0.951507 0.950756 0.950002 0.949243 0.94848 0.947713 0.946939 0.94616 0.945373 0.94458 0.943778 0.942968 0.942148 0.941318 0.940476 0.939622 0.938755 0.937873 0.936975 0.93606 0.935126 0.934171 0.933192 0.932188 0.931157 0.930094 0.928996 0.92786 0.926679 0.92545 0.924165 0.922816 0.921393 0.919885 0.918277 0.91655 0.914682 0.912642 0.91038 0.907849 0.905014 0.901705 0.89748 0.892472 0.887672 0.879616 0.856542 0.833643 0.833643 
1.14 1.06824 1.07706 1.09662 1.09355 1.09098 1.09202 1.0926 1.09225 1.092 1.09193 1.09185 1.09174 1.09164 1.09154 1.09147 1.09138 1.09131 1.09122 1.09116 1.09108 1.09103 1.09095 1.0909 1.09083 1.09079 1.09072 1.09068 1.09062 1.09058 1.09053 1.09049 1.09044 1.0904 1.09035 1.09031 1.09027 1.09023 1.09019 1.09015 1.09011 1.09007 1.09003 1.08999 1.08995 1.08992 1.08988 1.08984 1.0898 1.08976 1.08972 1.08968 1.08964 1.0896 1.08956 1.08952 1.08948 1.08944 1.08939 1.08935 1.0893 1.08926 1.08921 1.08916 1.08911 1.08906 1.08901 1.08896 1.0889 1.08884 1.08878 1.08872 1.08865 1.08858 1.08851 1.08843 1.08835 1.08826 1.08817 1.08807 1.08796 1.08785 1.08773 1.08761 1.08747 1.08733 1.08716 1.08695 1.08665 1.08619 1.08548 1.08436 1.08267 1.08021 1.07677 1.07218 1.06637 1.05936 1.05137 1.04282 1.03426 1.02628 1.01932 1.01363 1.00926 1.00607 1.00384 1.00236 1.0014 1.00081 1.00045 1.00025 1.00013 1.00007 1.00003 1.00002 1.00001 1 1 1 1 1 1 1 1 1 1 1 1 1 1 1 1 1 1 1 1 1 1 1 0.999999 0.999999 0.999997 0.999995 0.99999 0.999982 0.999968 0.999944 0.999907 0.999849 0.999762 0.999635 0.999456 0.99921 0.998883 0.998462 0.997934 0.99729 0.996525 0.995639 0.994639 0.993535 0.992343 0.991081 0.98977 0.988431 0.987085 0.985751 0.984443 0.983173 0.981949 0.980776 0.979653 0.97858 0.977553 0.976567 0.975616 0.974696 0.973803 0.97293 0.972077 0.971238 0.970413 0.9696 0.968796 0.968002 0.967216 0.966437 0.965664 0.964898 0.964137 0.96338 0.962627 0.961878 0.961131 0.960387 0.959645 0.958905 0.958165 0.957427 0.956688 0.955949 0.95521 0.95447 0.953728 0.952985 0.952239 0.95149 0.950739 0.949983 0.949224 0.94846 0.947692 0.946917 0.946136 0.945349 0.944554 0.943751 0.94294 0.942118 0.941287 0.940444 0.939588 0.938719 0.937835 0.936935 0.936018 0.935081 0.934123 0.933142 0.932135 0.9311 0.930034 0.928933 0.927792 0.926608 0.925374 0.924083 0.922729 0.921301 0.919787 0.918173 0.91644 0.914566 0.912526 0.910278 0.907747 0.904886 0.901724 0.897958 0.892815 0.887206 0.883373 0.873944 0.857806 0.857806 
1.05674 1.09262 1.10546 1.08783 1.08768 1.09301 1.09313 1.09193 1.09183 1.09202 1.09192 1.09177 1.09166 1.09159 1.0915 1.09143 1.09134 1.09128 1.09119 1.09114 1.09106 1.091 1.09093 1.09088 1.09081 1.09077 1.0907 1.09066 1.0906 1.09056 1.0905 1.09047 1.09041 1.09038 1.09033 1.09029 1.09024 1.09021 1.09016 1.09013 1.09008 1.09005 1.09 1.08997 1.08993 1.08989 1.08985 1.08981 1.08977 1.08973 1.08969 1.08965 1.08961 1.08957 1.08953 1.08949 1.08944 1.0894 1.08936 1.08931 1.08926 1.08922 1.08917 1.08912 1.08907 1.08901 1.08896 1.0889 1.08884 1.08878 1.08871 1.08865 1.08858 1.0885 1.08842 1.08834 1.08825 1.08816 1.08806 1.08795 1.08784 1.08771 1.08758 1.08744 1.08728 1.08711 1.08691 1.08665 1.0863 1.08578 1.085 1.08384 1.08214 1.07972 1.07641 1.07204 1.06652 1.05985 1.0522 1.0439 1.03547 1.02746 1.02038 1.0145 1.00993 1.00655 1.00417 1.00258 1.00154 1.00089 1.0005 1.00028 1.00015 1.00008 1.00004 1.00002 1.00001 1 1 1 1 1 1 1 1 1 1 1 1 1 1 1 1 1 1 1 1 1 1 1 0.999999 0.999998 0.999997 0.999994 0.999989 0.99998 0.999965 0.99994 0.9999 0.999839 0.999748 0.999615 0.999428 0.999174 0.998837 0.998406 0.997867 0.997213 0.99644 0.995548 0.994545 0.99344 0.992251 0.990995 0.989692 0.988364 0.987029 0.985706 0.98441 0.98315 0.981935 0.980769 0.979653 0.978584 0.97756 0.976575 0.975626 0.974706 0.973812 0.972939 0.972085 0.971246 0.97042 0.969606 0.968802 0.968007 0.967221 0.966441 0.965668 0.964901 0.96414 0.963382 0.962629 0.961879 0.961132 0.960388 0.959645 0.958904 0.958165 0.957425 0.956686 0.955947 0.955207 0.954466 0.953724 0.95298 0.952234 0.951485 0.950732 0.949977 0.949217 0.948452 0.947683 0.946908 0.946126 0.945338 0.944543 0.943739 0.942927 0.942105 0.941272 0.940429 0.939572 0.938703 0.937818 0.936917 0.935999 0.935062 0.934104 0.933122 0.932115 0.93108 0.930013 0.928912 0.927772 0.926589 0.925356 0.924069 0.922718 0.921296 0.91979 0.918187 0.916472 0.914622 0.912608 0.910411 0.907997 0.905237 0.902049 0.898713 0.895031 0.889134 0.882186 0.879434 0.876121 0.876121 
1.09629 1.09608 1.08851 1.08858 1.0936 1.09262 1.09142 1.0918 1.0921 1.09192 1.09174 1.09168 1.09162 1.09154 1.09145 1.09138 1.0913 1.09124 1.09116 1.09111 1.09103 1.09098 1.0909 1.09086 1.09079 1.09075 1.09068 1.09064 1.09058 1.09054 1.09048 1.09045 1.09039 1.09036 1.0903 1.09027 1.09022 1.09019 1.09014 1.09011 1.09006 1.09002 1.08998 1.08994 1.0899 1.08986 1.08982 1.08978 1.08974 1.0897 1.08966 1.08962 1.08958 1.08954 1.08949 1.08945 1.08941 1.08936 1.08932 1.08927 1.08922 1.08917 1.08912 1.08907 1.08902 1.08896 1.0889 1.08884 1.08878 1.08872 1.08865 1.08858 1.0885 1.08843 1.08834 1.08826 1.08816 1.08806 1.08796 1.08784 1.08772 1.08758 1.08744 1.08728 1.08711 1.08691 1.08668 1.08638 1.08598 1.0854 1.08457 1.08336 1.08165 1.07926 1.07606 1.0719 1.06667 1.06033 1.05299 1.04494 1.03663 1.02862 1.02141 1.01535 1.01058 1.00702 1.0045 1.00279 1.00167 1.00098 1.00055 1.0003 1.00016 1.00008 1.00004 1.00002 1.00001 1 1 1 1 1 1 1 1 1 1 1 1 1 1 1 1 1 1 1 1 1 1 1 0.999999 0.999998 0.999997 0.999994 0.999988 0.999979 0.999963 0.999937 0.999895 0.999831 0.999736 0.999598 0.999405 0.999143 0.998799 0.998358 0.997811 0.997149 0.996369 0.995472 0.994467 0.993363 0.992177 0.990927 0.989633 0.988314 0.98699 0.985677 0.984391 0.98314 0.981934 0.980774 0.979662 0.978597 0.977575 0.976591 0.975642 0.974723 0.973828 0.972955 0.9721 0.971261 0.970435 0.96962 0.968816 0.96802 0.967233 0.966453 0.96568 0.964913 0.964151 0.963393 0.962639 0.961889 0.961142 0.960397 0.959654 0.958913 0.958172 0.957433 0.956693 0.955954 0.955213 0.954472 0.95373 0.952985 0.952238 0.951489 0.950737 0.94998 0.94922 0.948455 0.947686 0.94691 0.946129 0.945341 0.944545 0.943741 0.942929 0.942107 0.941274 0.94043 0.939574 0.938705 0.937821 0.936921 0.936003 0.935067 0.93411 0.93313 0.932125 0.931092 0.930029 0.928931 0.927796 0.926619 0.925394 0.924116 0.922778 0.92137 0.919885 0.918307 0.916626 0.914824 0.912876 0.910749 0.908438 0.905937 0.903058 0.899712 0.896542 0.893289 0.888165 0.883944 0.881867 0.881867 
1.09819 1.09135 1.08939 1.094 1.0925 1.09079 1.09176 1.09218 1.09184 1.09167 1.09168 1.09164 1.09154 1.09146 1.09139 1.09133 1.09126 1.0912 1.09112 1.09107 1.09099 1.09095 1.09087 1.09083 1.09076 1.09072 1.09065 1.09062 1.09055 1.09052 1.09045 1.09043 1.09036 1.09034 1.09028 1.09025 1.09019 1.09016 1.09011 1.09008 1.09003 1.09 1.08995 1.08992 1.08987 1.08984 1.08979 1.08975 1.08971 1.08967 1.08963 1.08959 1.08955 1.0895 1.08946 1.08942 1.08937 1.08932 1.08928 1.08923 1.08918 1.08913 1.08908 1.08902 1.08897 1.08891 1.08885 1.08879 1.08872 1.08866 1.08859 1.08851 1.08843 1.08835 1.08827 1.08817 1.08807 1.08797 1.08785 1.08773 1.0876 1.08746 1.0873 1.08713 1.08694 1.08672 1.08645 1.08611 1.08566 1.08503 1.08415 1.0829 1.08118 1.07884 1.07576 1.07179 1.06682 1.0608 1.05376 1.04594 1.03775 1.02973 1.02241 1.01619 1.01122 1.00748 1.00482 1.003 1.00181 1.00106 1.0006 1.00033 1.00018 1.00009 1.00005 1.00002 1.00001 1 1 1 1 1 1 1 1 1 1 1 1 1 1 1 1 1 1 1 1 1 1 1 0.999999 0.999998 0.999997 0.999993 0.999988 0.999978 0.999961 0.999934 0.999891 0.999824 0.999726 0.999584 0.999386 0.999118 0.998767 0.998319 0.997765 0.997096 0.996311 0.995411 0.994405 0.993302 0.99212 0.990876 0.989589 0.98828 0.986965 0.985663 0.984385 0.983143 0.981943 0.980789 0.979682 0.978619 0.977599 0.976617 0.975668 0.974748 0.973853 0.972979 0.972124 0.971283 0.970457 0.969641 0.968837 0.968041 0.967253 0.966473 0.965699 0.964932 0.964169 0.963411 0.962657 0.961906 0.961159 0.960414 0.95967 0.958929 0.958188 0.957448 0.956709 0.955969 0.955228 0.954487 0.953744 0.952999 0.952253 0.951503 0.95075 0.949994 0.949234 0.948469 0.947699 0.946924 0.946143 0.945355 0.944559 0.943756 0.942944 0.942122 0.94129 0.940448 0.939592 0.938724 0.937841 0.936943 0.936028 0.935094 0.934139 0.933163 0.932162 0.931134 0.930076 0.928985 0.927858 0.926691 0.925478 0.924215 0.922895 0.92151 0.920053 0.918513 0.916876 0.915131 0.913267 0.911256 0.909053 0.906688 0.904216 0.901365 0.898023 0.895091 0.892264 0.889032 0.886657 0.886657 
1.08941 1.09187 1.09333 1.09216 1.09084 1.09192 1.09214 1.09164 1.09158 1.09168 1.09162 1.09152 1.09145 1.0914 1.09133 1.09128 1.0912 1.09115 1.09108 1.09103 1.09096 1.09092 1.09084 1.0908 1.09073 1.0907 1.09062 1.09059 1.09052 1.0905 1.09043 1.0904 1.09034 1.09031 1.09025 1.09023 1.09017 1.09014 1.09008 1.09006 1.09 1.08997 1.08992 1.08989 1.08984 1.08981 1.08976 1.08973 1.08968 1.08964 1.0896 1.08956 1.08951 1.08947 1.08942 1.08938 1.08933 1.08929 1.08924 1.08919 1.08914 1.08909 1.08903 1.08898 1.08892 1.08886 1.0888 1.08873 1.08867 1.0886 1.08852 1.08845 1.08837 1.08828 1.08819 1.08809 1.08799 1.08788 1.08776 1.08763 1.08749 1.08733 1.08716 1.08698 1.08677 1.08652 1.08622 1.08584 1.08535 1.08467 1.08374 1.08247 1.08074 1.07846 1.07549 1.07171 1.067 1.06126 1.05451 1.04692 1.03884 1.03082 1.0234 1.017 1.01185 1.00794 1.00513 1.0032 1.00194 1.00113 1.00064 1.00036 1.00019 1.0001 1.00005 1.00002 1.00001 1.00001 1 1 1 1 1 1 1 1 1 1 1 1 1 1 1 1 1 1 1 1 1 1 0.999999 0.999998 0.999996 0.999993 0.999987 0.999977 0.99996 0.999932 0.999887 0.999819 0.999718 0.999573 0.999371 0.999099 0.998742 0.998289 0.997729 0.997055 0.996266 0.995364 0.994357 0.993257 0.992079 0.99084 0.989561 0.98826 0.986955 0.985661 0.984392 0.983158 0.981964 0.980815 0.979712 0.978652 0.977633 0.976651 0.975702 0.974782 0.973887 0.973012 0.972155 0.971314 0.970487 0.969671 0.968866 0.968069 0.967281 0.966501 0.965726 0.964958 0.964195 0.963437 0.962683 0.961932 0.961184 0.960438 0.959695 0.958953 0.958212 0.957472 0.956732 0.955992 0.955251 0.95451 0.953767 0.953022 0.952275 0.951526 0.950773 0.950017 0.949257 0.948492 0.947723 0.946948 0.946167 0.945379 0.944585 0.943782 0.942971 0.94215 0.94132 0.940478 0.939625 0.938758 0.937878 0.936982 0.93607 0.935139 0.934189 0.933217 0.932221 0.9312 0.93015 0.929068 0.927952 0.926798 0.9256 0.924356 0.923058 0.921701 0.920277 0.918779 0.917197 0.915518 0.913731 0.911836 0.909808 0.907591 0.905257 0.90291 0.900254 0.897407 0.894884 0.892378 0.890189 0.890189 
1.09178 1.09206 1.09198 1.0913 1.09188 1.09205 1.09152 1.09153 1.09166 1.09158 1.09147 1.09143 1.09139 1.09133 1.09126 1.09122 1.09115 1.0911 1.09103 1.09099 1.09091 1.09088 1.0908 1.09077 1.09069 1.09067 1.09059 1.09057 1.09049 1.09047 1.0904 1.09038 1.09031 1.09029 1.09022 1.0902 1.09014 1.09011 1.09006 1.09003 1.08998 1.08995 1.08989 1.08986 1.08981 1.08978 1.08973 1.0897 1.08965 1.08961 1.08957 1.08952 1.08948 1.08944 1.08939 1.08934 1.0893 1.08925 1.0892 1.08915 1.0891 1.08904 1.08899 1.08893 1.08887 1.08881 1.08875 1.08868 1.08861 1.08854 1.08846 1.08838 1.0883 1.08821 1.08811 1.08801 1.0879 1.08778 1.08765 1.08752 1.08737 1.0872 1.08702 1.08682 1.08659 1.08632 1.08599 1.08557 1.08503 1.08432 1.08335 1.08205 1.08034 1.07811 1.07526 1.07166 1.06719 1.06173 1.05525 1.04786 1.0399 1.03188 1.02436 1.0178 1.01246 1.00838 1.00543 1.0034 1.00206 1.00121 1.00069 1.00038 1.0002 1.00011 1.00005 1.00003 1.00001 1.00001 1 1 1 1 1 1 1 1 1 1 1 1 1 1 1 1 1 1 1 1 1 1 0.999999 0.999998 0.999996 0.999993 0.999987 0.999977 0.999959 0.99993 0.999885 0.999815 0.999713 0.999565 0.99936 0.999084 0.998724 0.998267 0.997703 0.997026 0.996235 0.995332 0.994325 0.993227 0.992053 0.99082 0.989548 0.988255 0.986958 0.985673 0.984411 0.983184 0.981996 0.980852 0.979751 0.978693 0.977676 0.976695 0.975746 0.974825 0.973929 0.973053 0.972196 0.971354 0.970525 0.969709 0.968903 0.968106 0.967317 0.966536 0.965761 0.964993 0.964229 0.96347 0.962716 0.961964 0.961216 0.96047 0.959727 0.958985 0.958244 0.957503 0.956763 0.956023 0.955282 0.954541 0.953798 0.953053 0.952306 0.951557 0.950804 0.950049 0.949289 0.948525 0.947756 0.946981 0.946201 0.945414 0.94462 0.943819 0.943009 0.94219 0.941361 0.940521 0.93967 0.938806 0.937928 0.937035 0.936127 0.9352 0.934255 0.933289 0.9323 0.931286 0.930245 0.929175 0.928071 0.926931 0.925752 0.924528 0.923256 0.921929 0.920542 0.919089 0.917562 0.915955 0.914253 0.91245 0.910561 0.908563 0.906394 0.904168 0.901957 0.899601 0.89727 0.895105 0.893148 0.893148 
1.09236 1.09167 1.09146 1.09173 1.09188 1.0915 1.09151 1.09163 1.09151 1.09142 1.0914 1.09137 1.0913 1.09125 1.0912 1.09116 1.09109 1.09105 1.09098 1.09094 1.09087 1.09084 1.09076 1.09073 1.09066 1.09063 1.09056 1.09054 1.09046 1.09044 1.09037 1.09035 1.09028 1.09026 1.09019 1.09017 1.09011 1.09009 1.09003 1.09 1.08995 1.08992 1.08987 1.08983 1.08978 1.08975 1.0897 1.08967 1.08962 1.08958 1.08953 1.08949 1.08944 1.0894 1.08935 1.08931 1.08926 1.08921 1.08916 1.08911 1.08905 1.089 1.08894 1.08888 1.08882 1.08876 1.08869 1.08862 1.08855 1.08848 1.0884 1.08831 1.08822 1.08813 1.08803 1.08792 1.08781 1.08769 1.08755 1.08741 1.08725 1.08707 1.08688 1.08666 1.08641 1.08611 1.08576 1.08531 1.08473 1.08397 1.08298 1.08167 1.07997 1.0778 1.07506 1.07164 1.06739 1.06219 1.05596 1.04878 1.04093 1.03291 1.02529 1.01858 1.01306 1.00882 1.00573 1.0036 1.00218 1.00128 1.00073 1.00041 1.00022 1.00011 1.00006 1.00003 1.00001 1.00001 1 1 1 1 1 1 1 1 1 1 1 1 1 1 1 1 1 1 1 1 1 1 0.999999 0.999998 0.999996 0.999993 0.999987 0.999976 0.999958 0.999929 0.999883 0.999813 0.999709 0.99956 0.999354 0.999076 0.998713 0.998253 0.997687 0.997008 0.996216 0.995313 0.994308 0.993212 0.992043 0.990816 0.98955 0.988264 0.986975 0.985697 0.984443 0.983221 0.982038 0.980898 0.9798 0.978744 0.977728 0.976747 0.975797 0.974876 0.973979 0.973103 0.972244 0.971401 0.970572 0.969755 0.968948 0.96815 0.967361 0.966579 0.965804 0.965035 0.964271 0.963512 0.962757 0.962005 0.961256 0.96051 0.959766 0.959024 0.958283 0.957542 0.956802 0.956062 0.955321 0.95458 0.953837 0.953092 0.952345 0.951596 0.950844 0.950088 0.949329 0.948565 0.947797 0.947023 0.946244 0.945458 0.944665 0.943865 0.943056 0.942239 0.941412 0.940574 0.939726 0.938865 0.93799 0.937101 0.936197 0.935276 0.934336 0.933376 0.932395 0.93139 0.930359 0.9293 0.92821 0.927086 0.925926 0.924724 0.923478 0.922183 0.920835 0.919427 0.917954 0.916413 0.914799 0.913099 0.911311 0.909463 0.907534 0.905492 0.903443 0.901399 0.899333 0.897361 0.895578 0.895578 
1.09144 1.09159 1.09165 1.09165 1.09149 1.09147 1.09156 1.09146 1.09137 1.09137 1.09133 1.09127 1.09122 1.09119 1.09113 1.09109 1.09103 1.09099 1.09093 1.09089 1.09082 1.09079 1.09072 1.09069 1.09062 1.0906 1.09052 1.0905 1.09043 1.09041 1.09033 1.09032 1.09025 1.09023 1.09016 1.09015 1.09008 1.09006 1.09 1.08997 1.08992 1.08989 1.08984 1.0898 1.08975 1.08972 1.08967 1.08963 1.08959 1.08955 1.0895 1.08946 1.08941 1.08936 1.08932 1.08927 1.08922 1.08917 1.08912 1.08906 1.08901 1.08895 1.08889 1.08883 1.08877 1.08871 1.08864 1.08857 1.08849 1.08841 1.08833 1.08824 1.08815 1.08805 1.08795 1.08784 1.08772 1.08759 1.08745 1.08729 1.08713 1.08694 1.08673 1.0865 1.08623 1.08591 1.08552 1.08504 1.08443 1.08364 1.08262 1.08131 1.07963 1.07752 1.0749 1.07164 1.06761 1.06265 1.05667 1.04968 1.04194 1.03392 1.02621 1.01934 1.01366 1.00925 1.00603 1.00379 1.0023 1.00136 1.00077 1.00043 1.00023 1.00012 1.00006 1.00003 1.00001 1.00001 1 1 1 1 1 1 1 1 1 1 1 1 1 1 1 1 1 1 1 1 1 1 0.999999 0.999998 0.999996 0.999993 0.999987 0.999976 0.999958 0.999929 0.999883 0.999812 0.999708 0.999559 0.999351 0.999072 0.998708 0.998248 0.997681 0.997001 0.996209 0.995308 0.994305 0.993213 0.992048 0.990826 0.989567 0.988288 0.987005 0.985734 0.984486 0.98327 0.982091 0.980954 0.979859 0.978804 0.977788 0.976807 0.975858 0.974936 0.974038 0.97316 0.972301 0.971457 0.970627 0.969809 0.969001 0.968203 0.967413 0.96663 0.965855 0.965085 0.96432 0.963561 0.962805 0.962053 0.961304 0.960558 0.959813 0.959071 0.958329 0.957589 0.956849 0.956108 0.955367 0.954626 0.953883 0.953139 0.952392 0.951643 0.950891 0.950136 0.949377 0.948614 0.947847 0.947074 0.946295 0.945511 0.944719 0.94392 0.943114 0.942298 0.941473 0.940638 0.939792 0.938934 0.938063 0.937179 0.936279 0.935363 0.934429 0.933477 0.932503 0.931508 0.930487 0.929441 0.928365 0.927258 0.926117 0.924939 0.92372 0.922456 0.921145 0.919783 0.918364 0.916885 0.915344 0.913743 0.912067 0.910324 0.908542 0.906706 0.904821 0.902952 0.901104 0.899301 0.897644 0.897644 
1.09146 1.09152 1.0915 1.09145 1.09142 1.09146 1.0914 1.09133 1.09133 1.09129 1.09123 1.0912 1.09116 1.09112 1.09106 1.09103 1.09097 1.09094 1.09088 1.09084 1.09078 1.09075 1.09068 1.09065 1.09058 1.09056 1.09048 1.09047 1.09039 1.09038 1.0903 1.09029 1.09022 1.0902 1.09013 1.09012 1.09005 1.09003 1.08997 1.08994 1.08989 1.08986 1.0898 1.08977 1.08972 1.08969 1.08964 1.0896 1.08955 1.08951 1.08947 1.08942 1.08937 1.08933 1.08928 1.08923 1.08918 1.08913 1.08908 1.08902 1.08897 1.08891 1.08885 1.08878 1.08872 1.08865 1.08858 1.08851 1.08843 1.08835 1.08827 1.08818 1.08808 1.08798 1.08787 1.08775 1.08763 1.08749 1.08734 1.08718 1.087 1.08681 1.08659 1.08634 1.08605 1.08571 1.08529 1.08478 1.08414 1.08332 1.08228 1.08097 1.07932 1.07727 1.07476 1.07166 1.06784 1.06311 1.05736 1.05055 1.04292 1.03491 1.02711 1.02009 1.01423 1.00967 1.00631 1.00397 1.00242 1.00143 1.00081 1.00045 1.00024 1.00013 1.00006 1.00003 1.00001 1.00001 1 1 1 1 1 1 1 1 1 1 1 1 1 1 1 1 1 1 1 1 1 1 0.999999 0.999998 0.999996 0.999993 0.999987 0.999976 0.999959 0.999929 0.999883 0.999813 0.999709 0.99956 0.999353 0.999074 0.99871 0.99825 0.997684 0.997006 0.996215 0.995316 0.994316 0.993228 0.992068 0.990852 0.989599 0.988326 0.98705 0.985784 0.984541 0.98333 0.982155 0.981021 0.979927 0.978874 0.977858 0.976877 0.975927 0.975004 0.974105 0.973226 0.972366 0.971521 0.97069 0.96987 0.969062 0.968263 0.967472 0.966689 0.965913 0.965142 0.964377 0.963617 0.962861 0.962109 0.961359 0.960613 0.959868 0.959125 0.958384 0.957643 0.956903 0.956162 0.955421 0.95468 0.953937 0.953193 0.952447 0.951698 0.950947 0.950192 0.949434 0.948671 0.947905 0.947133 0.946355 0.945572 0.944782 0.943985 0.94318 0.942366 0.941544 0.940711 0.939868 0.939014 0.938147 0.937266 0.936372 0.935461 0.934534 0.933589 0.932624 0.931638 0.930629 0.929595 0.928534 0.927444 0.926322 0.925167 0.923975 0.922743 0.921468 0.920148 0.918781 0.917362 0.915889 0.914365 0.912792 0.911162 0.909489 0.907792 0.906067 0.904337 0.902633 0.90097 0.899418 0.899418 
1.09145 1.09138 1.09136 1.09136 1.09136 1.09133 1.09128 1.09128 1.09125 1.0912 1.09116 1.09113 1.09108 1.09105 1.091 1.09097 1.09091 1.09088 1.09082 1.09079 1.09073 1.0907 1.09063 1.09061 1.09054 1.09052 1.09045 1.09043 1.09036 1.09034 1.09027 1.09026 1.09018 1.09017 1.0901 1.09009 1.09002 1.09 1.08994 1.08991 1.08985 1.08983 1.08977 1.08974 1.08969 1.08966 1.08961 1.08957 1.08952 1.08948 1.08943 1.08939 1.08934 1.08929 1.08924 1.08919 1.08914 1.08909 1.08903 1.08898 1.08892 1.08886 1.0888 1.08873 1.08867 1.0886 1.08853 1.08845 1.08837 1.08829 1.0882 1.0881 1.088 1.0879 1.08779 1.08766 1.08753 1.08739 1.08723 1.08706 1.08688 1.08667 1.08644 1.08617 1.08586 1.0855 1.08507 1.08453 1.08386 1.08302 1.08196 1.08065 1.07903 1.07705 1.07464 1.0717 1.06807 1.06357 1.05804 1.05141 1.04388 1.03587 1.02799 1.02083 1.0148 1.01007 1.00659 1.00415 1.00253 1.00149 1.00085 1.00047 1.00025 1.00013 1.00007 1.00003 1.00002 1.00001 1 1 1 1 1 1 1 1 1 1 1 1 1 1 1 1 1 1 1 1 1 1 0.999999 0.999998 0.999996 0.999993 0.999987 0.999977 0.999959 0.99993 0.999885 0.999815 0.999712 0.999563 0.999358 0.99908 0.998719 0.99826 0.997696 0.997021 0.996234 0.995338 0.994342 0.993259 0.992103 0.990893 0.989645 0.988378 0.987107 0.985847 0.984609 0.983401 0.98223 0.981098 0.980006 0.978953 0.977937 0.976955 0.976004 0.97508 0.97418 0.9733 0.972439 0.971593 0.970761 0.96994 0.969131 0.968331 0.967539 0.966756 0.965979 0.965208 0.964442 0.963681 0.962925 0.962172 0.961422 0.960675 0.95993 0.959187 0.958445 0.957704 0.956964 0.956224 0.955483 0.954741 0.953999 0.953255 0.952509 0.951761 0.95101 0.950256 0.949498 0.948736 0.94797 0.9472 0.946423 0.945641 0.944853 0.944057 0.943254 0.942443 0.941623 0.940793 0.939953 0.939102 0.93824 0.937364 0.936474 0.93557 0.934649 0.933712 0.932755 0.931779 0.930781 0.92976 0.928714 0.927641 0.926539 0.925406 0.92424 0.923038 0.921798 0.920519 0.919198 0.917834 0.916426 0.914972 0.913479 0.911948 0.910379 0.908786 0.907184 0.905576 0.903985 0.902431 0.900965 0.900965 
1.09128 1.09128 1.09128 1.09127 1.09126 1.09123 1.09121 1.09119 1.09115 1.09112 1.09109 1.09106 1.09101 1.09098 1.09094 1.09091 1.09085 1.09083 1.09077 1.09074 1.09068 1.09066 1.09059 1.09057 1.0905 1.09048 1.09041 1.0904 1.09032 1.09031 1.09023 1.09022 1.09015 1.09014 1.09007 1.09005 1.08998 1.08997 1.0899 1.08988 1.08982 1.0898 1.08974 1.08971 1.08966 1.08962 1.08957 1.08953 1.08948 1.08944 1.08939 1.08935 1.0893 1.08925 1.0892 1.08915 1.0891 1.08905 1.08899 1.08893 1.08887 1.08881 1.08875 1.08868 1.08862 1.08854 1.08847 1.08839 1.08831 1.08822 1.08813 1.08803 1.08793 1.08782 1.0877 1.08757 1.08744 1.08729 1.08713 1.08695 1.08675 1.08653 1.08629 1.08601 1.08568 1.0853 1.08484 1.08428 1.08358 1.08272 1.08166 1.08035 1.07876 1.07685 1.07455 1.07176 1.06832 1.06404 1.05871 1.05225 1.04482 1.03681 1.02885 1.02154 1.01535 1.01047 1.00686 1.00433 1.00264 1.00156 1.00089 1.00049 1.00027 1.00014 1.00007 1.00003 1.00002 1.00001 1 1 1 1 1 1 1 1 1 1 1 1 1 1 1 1 1 1 1 1 1 1 0.999999 0.999998 0.999997 0.999993 0.999987 0.999977 0.99996 0.999932 0.999887 0.999818 0.999716 0.99957 0.999366 0.999092 0.998733 0.998278 0.997718 0.997047 0.996264 0.995373 0.994382 0.993304 0.992153 0.990948 0.989706 0.988445 0.987179 0.985924 0.984689 0.983485 0.982316 0.981185 0.980094 0.979041 0.978025 0.977043 0.976091 0.975166 0.974264 0.973383 0.97252 0.971673 0.97084 0.970018 0.969208 0.968407 0.967615 0.96683 0.966052 0.965281 0.964514 0.963753 0.962996 0.962243 0.961493 0.960745 0.96 0.959257 0.958515 0.957774 0.957033 0.956293 0.955552 0.954811 0.954068 0.953324 0.952579 0.951831 0.95108 0.950327 0.94957 0.948809 0.948044 0.947274 0.946499 0.945719 0.944932 0.944138 0.943337 0.942528 0.941711 0.940884 0.940047 0.9392 0.938342 0.937471 0.936586 0.935688 0.934774 0.933844 0.932897 0.93193 0.930944 0.929935 0.928904 0.927847 0.926764 0.925653 0.924512 0.923339 0.922133 0.920892 0.919614 0.918299 0.916948 0.91556 0.914137 0.912684 0.911205 0.909705 0.908196 0.906687 0.90519 0.903723 0.902328 0.902328 
1.09119 1.09119 1.09119 1.09117 1.09116 1.09115 1.09113 1.0911 1.09107 1.09105 1.09101 1.09098 1.09095 1.09092 1.09087 1.09084 1.0908 1.09077 1.09071 1.09069 1.09063 1.09061 1.09054 1.09052 1.09045 1.09044 1.09037 1.09036 1.09028 1.09027 1.0902 1.09019 1.09011 1.0901 1.09003 1.09002 1.08995 1.08993 1.08987 1.08985 1.08979 1.08976 1.08971 1.08968 1.08962 1.08959 1.08954 1.0895 1.08945 1.08941 1.08936 1.08931 1.08926 1.08921 1.08916 1.08911 1.08906 1.089 1.08895 1.08889 1.08883 1.08876 1.0887 1.08863 1.08856 1.08849 1.08841 1.08833 1.08825 1.08816 1.08806 1.08796 1.08785 1.08774 1.08762 1.08748 1.08734 1.08719 1.08702 1.08683 1.08663 1.0864 1.08614 1.08584 1.0855 1.0851 1.08462 1.08403 1.08332 1.08244 1.08137 1.08007 1.07852 1.07668 1.07448 1.07184 1.06858 1.0645 1.05937 1.05308 1.04574 1.03774 1.02969 1.02225 1.0159 1.01086 1.00712 1.0045 1.00274 1.00162 1.00093 1.00051 1.00028 1.00014 1.00007 1.00004 1.00002 1.00001 1 1 1 1 1 1 1 1 1 1 1 1 1 1 1 1 1 1 1 1 1 1 0.999999 0.999998 0.999997 0.999994 0.999988 0.999978 0.999961 0.999934 0.99989 0.999823 0.999723 0.999579 0.999378 0.999107 0.998753 0.998303 0.997748 0.997083 0.996306 0.99542 0.994435 0.993363 0.992219 0.991019 0.989782 0.988526 0.987265 0.986013 0.984782 0.98358 0.982413 0.981283 0.980193 0.97914 0.978123 0.97714 0.976187 0.97526 0.974357 0.973475 0.97261 0.971762 0.970927 0.970104 0.969293 0.968491 0.967698 0.966912 0.966134 0.965361 0.964595 0.963833 0.963075 0.962321 0.961571 0.960823 0.960077 0.959334 0.958591 0.95785 0.95711 0.956369 0.955628 0.954887 0.954145 0.953401 0.952656 0.951909 0.951159 0.950406 0.94965 0.94889 0.948126 0.947357 0.946583 0.945804 0.945019 0.944227 0.943428 0.942622 0.941807 0.940983 0.94015 0.939307 0.938452 0.937586 0.936707 0.935815 0.934908 0.933986 0.933047 0.932091 0.931115 0.930119 0.929102 0.928062 0.926998 0.925908 0.924791 0.923645 0.922469 0.921263 0.920026 0.918756 0.917455 0.916125 0.914765 0.913379 0.911973 0.910552 0.909122 0.907693 0.906274 0.904879 0.903543 0.903543 