# vtk DataFile Version 3.0
LBM simulation at step 240
ASCII
DATASET STRUCTURED_POINTS
DIMENSIONS 256 256 1
ORIGIN 0 0 0
SPACING 1 1 1
POINT_DATA 65536
SCALARS density float
LOOKUP_TABLE default
0.741745 1.0884 1.13512 1.09283 1.08458 1.09336 1.09509 1.09323 1.09258 1.0927 1.09262 1.09242 1.09227 1.09217 1.09208 1.09199 1.09192 1.09185 1.09179 1.09173 1.09167 1.09162 1.09157 1.09153 1.09148 1.09144 1.09139 1.09135 1.09131 1.09128 1.09124 1.09121 1.09117 1.09114 1.09111 1.09108 1.09105 1.09102 1.09099 1.09097 1.09094 1.09091 1.09089 1.09086 1.09084 1.09082 1.09079 1.09077 1.09075 1.09072 1.0907 1.09068 1.09066 1.09064 1.09062 1.0906 1.09057 1.09055 1.09053 1.09051 1.09049 1.09047 1.09045 1.09043 1.09041 1.09039 1.09037 1.09036 1.09034 1.09032 1.0903 1.09028 1.09026 1.09024 1.09022 1.0902 1.09018 1.09016 1.09014 1.09012 1.0901 1.09008 1.09006 1.09004 1.09001 1.08999 1.08997 1.08995 1.08993 1.08991 1.08988 1.08986 1.08984 1.08981 1.08979 1.08976 1.08974 1.08971 1.08969 1.08966 1.08963 1.0896 1.08957 1.08954 1.08951 1.08947 1.08942 1.08936 1.08929 1.08921 1.0891 1.08896 1.08878 1.08855 1.08827 1.08792 1.0875 1.08699 1.08639 1.0857 1.08492 1.08405 1.08311 1.0821 1.08103 1.07992 1.07877 1.0776 1.0764 1.07515 1.07378 1.07223 1.07035 1.06799 1.06493 1.06095 1.05587 1.04958 1.04213 1.03372 1.02476 1.01573 1.00714 0.999397 0.992758 0.987298 0.982957 0.97959 0.977015 0.975051 0.973539 0.97235 0.971385 0.970573 0.969861 0.969215 0.968612 0.968035 0.967477 0.96693 0.96639 0.965856 0.965327 0.9648 0.964277 0.963755 0.963236 0.962718 0.962202 0.961688 0.961175 0.960662 0.960151 0.959641 0.959131 0.958622 0.958113 0.957604 0.957096 0.956587 0.956078 0.955569 0.955059 0.954549 0.954038 0.953526 0.953013 0.952499 0.951984 0.951467 0.950949 0.950428 0.949906 0.949382 0.948855 0.948326 0.947795 0.947261 0.946723 0.946183 0.945638 0.945091 0.944539 0.943984 0.943423 0.942859 0.942289 0.941714 0.941133 0.940547 0.939954 0.939354 0.938747 0.938133 0.93751 0.936879 0.936238 0.935588 0.934927 0.934255 0.93357 0.932873 0.932161 0.931434 0.930691 0.929931 0.929151 0.92835 0.927527 0.926679 0.925803 0.924898 0.92396 0.922985 0.921969 0.920908 0.919796 0.918626 0.91739 0.916079 0.91468 0.91318 0.911561 0.909799 0.907863 0.905721 0.90332 0.900545 0.897293 0.893647 0.889225 0.882014 0.872605 0.867708 0.845908 0.691034 
1.13148 1.0648 1.05984 1.09498 1.09839 1.09286 1.09194 1.09303 1.0931 1.09271 1.09249 1.0924 1.09229 1.09217 1.09207 1.09199 1.09191 1.09185 1.09178 1.09172 1.09167 1.09162 1.09156 1.09152 1.09147 1.09143 1.09139 1.09135 1.09131 1.09127 1.09123 1.0912 1.09116 1.09114 1.0911 1.09108 1.09104 1.09102 1.09098 1.09096 1.09093 1.09091 1.09088 1.09086 1.09083 1.09081 1.09078 1.09076 1.09074 1.09071 1.09069 1.09067 1.09065 1.09063 1.0906 1.09058 1.09056 1.09054 1.09052 1.0905 1.09048 1.09046 1.09044 1.09042 1.0904 1.09038 1.09036 1.09034 1.09032 1.0903 1.09028 1.09026 1.09024 1.09022 1.0902 1.09018 1.09016 1.09014 1.09012 1.0901 1.09008 1.09006 1.09004 1.09002 1.08999 1.08997 1.08995 1.08993 1.0899 1.08988 1.08986 1.08983 1.08981 1.08979 1.08976 1.08974 1.08971 1.08968 1.08966 1.08963 1.0896 1.08957 1.08954 1.0895 1.08946 1.08942 1.08937 1.08931 1.08924 1.08915 1.08903 1.08888 1.08869 1.08846 1.08816 1.0878 1.08736 1.08684 1.08623 1.08553 1.08474 1.08386 1.08291 1.08188 1.0808 1.07968 1.07852 1.07732 1.07608 1.07477 1.07333 1.07168 1.06971 1.06727 1.06417 1.06023 1.05531 1.04929 1.04221 1.03422 1.02563 1.01687 1.00841 1.00065 0.99389 0.98825 0.983714 0.980163 0.977431 0.975342 0.973736 0.972479 0.971467 0.970622 0.969889 0.969229 0.968616 0.968035 0.967473 0.966924 0.966383 0.965848 0.965318 0.964791 0.964267 0.963746 0.963226 0.962708 0.962192 0.961677 0.961164 0.960651 0.96014 0.959629 0.959119 0.95861 0.9581 0.957591 0.957082 0.956574 0.956064 0.955555 0.955045 0.954534 0.954023 0.953511 0.952997 0.952483 0.951967 0.95145 0.950931 0.95041 0.949887 0.949363 0.948836 0.948306 0.947774 0.947239 0.946701 0.946159 0.945615 0.945066 0.944514 0.943957 0.943396 0.942831 0.94226 0.941684 0.941102 0.940514 0.93992 0.939319 0.938711 0.938095 0.937471 0.936838 0.936195 0.935543 0.93488 0.934205 0.933519 0.932818 0.932104 0.931374 0.930628 0.929863 0.92908 0.928275 0.927446 0.926593 0.925712 0.9248 0.923854 0.922871 0.921846 0.920775 0.91965 0.918467 0.917215 0.915885 0.914466 0.91294 0.911291 0.909493 0.907516 0.905309 0.902823 0.900021 0.896737 0.892529 0.887512 0.882674 0.874618 0.851663 0.829003 0.829003 
1.14073 1.06894 1.07776 1.09733 1.09424 1.09166 1.09267 1.09323 1.09285 1.09258 1.09249 1.09239 1.09226 1.09215 1.09206 1.09198 1.0919 1.09183 1.09177 1.09171 1.09165 1.09161 1.09155 1.09151 1.09146 1.09142 1.09138 1.09134 1.0913 1.09127 1.09122 1.0912 1.09116 1.09113 1.09109 1.09107 1.09103 1.09101 1.09097 1.09095 1.09092 1.0909 1.09087 1.09085 1.09082 1.0908 1.09077 1.09075 1.09072 1.0907 1.09068 1.09066 1.09064 1.09062 1.09059 1.09057 1.09055 1.09053 1.09051 1.09049 1.09047 1.09045 1.09043 1.09041 1.09039 1.09037 1.09035 1.09033 1.09031 1.09029 1.09027 1.09025 1.09023 1.09021 1.09018 1.09016 1.09014 1.09012 1.0901 1.09008 1.09006 1.09004 1.09002 1.08999 1.08997 1.08995 1.08993 1.0899 1.08988 1.08986 1.08983 1.08981 1.08978 1.08976 1.08973 1.08971 1.08968 1.08965 1.08962 1.08959 1.08956 1.08953 1.0895 1.08946 1.08942 1.08938 1.08932 1.08926 1.08918 1.08909 1.08896 1.08881 1.08861 1.08836 1.08806 1.08768 1.08723 1.0867 1.08607 1.08536 1.08455 1.08367 1.0827 1.08166 1.08057 1.07942 1.07823 1.077 1.07572 1.07435 1.07285 1.07114 1.06912 1.06665 1.06357 1.05973 1.05498 1.04924 1.04248 1.03483 1.02653 1.01797 1.00958 1.00178 0.994901 0.989094 0.98438 0.980666 0.977796 0.975598 0.97391 0.972594 0.971541 0.970667 0.969916 0.969244 0.968624 0.968038 0.967473 0.966922 0.96638 0.965845 0.965314 0.964787 0.964262 0.96374 0.963221 0.962702 0.962186 0.961671 0.961157 0.960645 0.960133 0.959622 0.959112 0.958602 0.958092 0.957583 0.957074 0.956565 0.956055 0.955546 0.955035 0.954524 0.954013 0.9535 0.952986 0.952472 0.951955 0.951438 0.950918 0.950397 0.949874 0.949349 0.948821 0.948291 0.947759 0.947223 0.946685 0.946143 0.945598 0.945049 0.944496 0.943938 0.943377 0.94281 0.942239 0.941662 0.94108 0.940491 0.939896 0.939294 0.938685 0.938068 0.937443 0.936809 0.936165 0.935511 0.934847 0.934171 0.933482 0.932781 0.932065 0.931333 0.930585 0.929818 0.929032 0.928224 0.927394 0.926537 0.925653 0.924738 0.923788 0.922801 0.921772 0.920696 0.919567 0.918378 0.917121 0.915786 0.91436 0.912829 0.911174 0.909371 0.907394 0.905202 0.902719 0.899894 0.896757 0.893015 0.887891 0.882279 0.878475 0.869158 0.853258 0.853258 
1.05744 1.09335 1.10619 1.08855 1.08839 1.0937 1.09381 1.09258 1.09247 1.09262 1.09251 1.09233 1.09222 1.09213 1.09204 1.09196 1.09188 1.09182 1.09175 1.0917 1.09164 1.0916 1.09154 1.0915 1.09145 1.09142 1.09137 1.09133 1.09129 1.09126 1.09121 1.09119 1.09115 1.09112 1.09108 1.09106 1.09102 1.091 1.09096 1.09094 1.09091 1.09089 1.09086 1.09084 1.09081 1.09079 1.09076 1.09074 1.09071 1.09069 1.09067 1.09065 1.09062 1.0906 1.09058 1.09056 1.09054 1.09052 1.0905 1.09048 1.09045 1.09044 1.09041 1.09039 1.09037 1.09035 1.09033 1.09031 1.09029 1.09027 1.09025 1.09023 1.09021 1.09019 1.09017 1.09015 1.09013 1.0901 1.09008 1.09006 1.09004 1.09002 1.09 1.08997 1.08995 1.08993 1.0899 1.08988 1.08986 1.08983 1.08981 1.08978 1.08976 1.08973 1.0897 1.08968 1.08965 1.08962 1.08959 1.08956 1.08953 1.08949 1.08946 1.08942 1.08938 1.08933 1.08927 1.08921 1.08912 1.08902 1.08889 1.08873 1.08853 1.08827 1.08796 1.08757 1.08711 1.08656 1.08592 1.0852 1.08438 1.08348 1.0825 1.08145 1.08033 1.07917 1.07796 1.0767 1.07539 1.07398 1.07243 1.07068 1.06863 1.06614 1.0631 1.05934 1.05474 1.04922 1.04274 1.03538 1.02734 1.01896 1.01065 1.00284 0.995856 0.989902 0.985026 0.981158 0.978156 0.975854 0.974086 0.972712 0.971618 0.970717 0.969947 0.969263 0.968636 0.968045 0.967477 0.966924 0.966381 0.965845 0.965314 0.964786 0.964262 0.963739 0.963219 0.962701 0.962184 0.961669 0.961155 0.960642 0.960131 0.959619 0.959109 0.958599 0.958089 0.95758 0.95707 0.956561 0.956051 0.955541 0.95503 0.954519 0.954007 0.953494 0.952981 0.952465 0.951949 0.951431 0.950911 0.95039 0.949867 0.949341 0.948813 0.948283 0.94775 0.947214 0.946675 0.946133 0.945587 0.945038 0.944485 0.943927 0.943365 0.942798 0.942226 0.941649 0.941066 0.940477 0.939881 0.939279 0.938669 0.938052 0.937426 0.936791 0.936147 0.935493 0.934828 0.934151 0.933462 0.93276 0.932043 0.931311 0.930562 0.929795 0.929008 0.9282 0.927368 0.926512 0.925627 0.924712 0.923763 0.922776 0.921748 0.920673 0.919546 0.91836 0.917107 0.915778 0.914361 0.912843 0.911206 0.909429 0.907481 0.905343 0.902979 0.900267 0.897116 0.893807 0.890153 0.884296 0.877447 0.874874 0.871831 0.871831 
1.09702 1.09681 1.08924 1.0893 1.09432 1.09334 1.09211 1.09248 1.09276 1.09256 1.09236 1.09227 1.09219 1.0921 1.092 1.09193 1.09186 1.0918 1.09173 1.09168 1.09162 1.09158 1.09153 1.09149 1.09144 1.0914 1.09135 1.09132 1.09127 1.09125 1.0912 1.09118 1.09113 1.09111 1.09107 1.09105 1.09101 1.09099 1.09095 1.09094 1.0909 1.09088 1.09085 1.09083 1.0908 1.09078 1.09075 1.09073 1.0907 1.09068 1.09066 1.09064 1.09061 1.09059 1.09057 1.09055 1.09053 1.09051 1.09048 1.09046 1.09044 1.09042 1.0904 1.09038 1.09036 1.09034 1.09032 1.0903 1.09028 1.09025 1.09023 1.09021 1.09019 1.09017 1.09015 1.09013 1.09011 1.09009 1.09006 1.09004 1.09002 1.09 1.08997 1.08995 1.08993 1.0899 1.08988 1.08986 1.08983 1.08981 1.08978 1.08975 1.08973 1.0897 1.08967 1.08964 1.08961 1.08958 1.08955 1.08952 1.08949 1.08945 1.08942 1.08938 1.08933 1.08928 1.08922 1.08915 1.08907 1.08896 1.08883 1.08866 1.08845 1.08818 1.08786 1.08746 1.08699 1.08643 1.08578 1.08504 1.08422 1.0833 1.08231 1.08125 1.08012 1.07895 1.07772 1.07643 1.07509 1.07364 1.07206 1.07027 1.06818 1.06568 1.06266 1.05898 1.05452 1.04921 1.04298 1.0359 1.02811 1.01991 1.01169 1.00386 0.996785 0.990691 0.985659 0.981642 0.978512 0.976107 0.974261 0.972831 0.971697 0.970769 0.969981 0.969286 0.968651 0.968055 0.967485 0.96693 0.966386 0.965849 0.965318 0.96479 0.964265 0.963743 0.963222 0.962704 0.962187 0.961672 0.961158 0.960644 0.960132 0.959621 0.95911 0.9586 0.95809 0.957581 0.957071 0.956561 0.956051 0.955541 0.95503 0.954519 0.954007 0.953494 0.95298 0.952464 0.951948 0.95143 0.95091 0.950388 0.949865 0.949339 0.948811 0.94828 0.947747 0.947211 0.946672 0.946129 0.945584 0.945034 0.94448 0.943923 0.94336 0.942793 0.942221 0.941644 0.941061 0.940471 0.939876 0.939273 0.938663 0.938046 0.93742 0.936785 0.936141 0.935487 0.934822 0.934146 0.933457 0.932755 0.932038 0.931307 0.930558 0.929792 0.929006 0.9282 0.92737 0.926515 0.925633 0.924721 0.923775 0.922793 0.92177 0.920702 0.919584 0.918408 0.917169 0.915856 0.914461 0.91297 0.91137 0.909644 0.907767 0.905704 0.903453 0.901005 0.898178 0.894884 0.891781 0.888603 0.883575 0.879571 0.877808 0.877808 
1.09893 1.09209 1.09012 1.09474 1.09323 1.09152 1.09248 1.09288 1.09252 1.09233 1.09231 1.09225 1.09214 1.09204 1.09197 1.0919 1.09183 1.09177 1.09171 1.09166 1.0916 1.09156 1.09151 1.09147 1.09142 1.09139 1.09134 1.09131 1.09126 1.09124 1.09119 1.09117 1.09112 1.0911 1.09106 1.09104 1.091 1.09098 1.09094 1.09093 1.09088 1.09087 1.09083 1.09082 1.09078 1.09077 1.09073 1.09072 1.09069 1.09067 1.09064 1.09063 1.0906 1.09058 1.09055 1.09054 1.09051 1.09049 1.09047 1.09045 1.09043 1.09041 1.09038 1.09037 1.09034 1.09032 1.0903 1.09028 1.09026 1.09024 1.09022 1.0902 1.09017 1.09015 1.09013 1.09011 1.09009 1.09007 1.09004 1.09002 1.09 1.08998 1.08995 1.08993 1.0899 1.08988 1.08986 1.08983 1.0898 1.08978 1.08975 1.08973 1.0897 1.08967 1.08964 1.08961 1.08958 1.08955 1.08952 1.08949 1.08945 1.08941 1.08938 1.08933 1.08929 1.08924 1.08917 1.0891 1.08901 1.0889 1.08876 1.08859 1.08837 1.0881 1.08777 1.08736 1.08688 1.08631 1.08565 1.0849 1.08406 1.08314 1.08214 1.08106 1.07993 1.07873 1.07749 1.07618 1.0748 1.07332 1.0717 1.06987 1.06775 1.06525 1.06225 1.05865 1.05434 1.04922 1.04324 1.03641 1.02886 1.02083 1.01269 1.00486 0.997693 0.991465 0.986282 0.98212 0.978865 0.976359 0.974437 0.972951 0.971778 0.970824 0.970018 0.969312 0.96867 0.96807 0.967496 0.96694 0.966395 0.965858 0.965326 0.964797 0.964272 0.96375 0.963229 0.962711 0.962194 0.961678 0.961164 0.960651 0.960138 0.959627 0.959116 0.958605 0.958095 0.957586 0.957076 0.956566 0.956056 0.955546 0.955035 0.954523 0.954011 0.953498 0.952983 0.952468 0.951951 0.951433 0.950913 0.950391 0.949868 0.949342 0.948814 0.948283 0.94775 0.947214 0.946674 0.946132 0.945586 0.945036 0.944483 0.943925 0.943363 0.942796 0.942224 0.941646 0.941063 0.940474 0.939879 0.939277 0.938667 0.93805 0.937424 0.93679 0.936147 0.935493 0.934829 0.934153 0.933466 0.932765 0.93205 0.93132 0.930573 0.929809 0.929026 0.928222 0.927396 0.926545 0.925668 0.924761 0.923822 0.922848 0.921834 0.920777 0.919672 0.918513 0.917294 0.916007 0.914643 0.913192 0.911641 0.909977 0.908189 0.906251 0.904119 0.901821 0.899417 0.896632 0.893376 0.89057 0.887883 0.884869 0.882796 0.882796 
1.09015 1.09261 1.09408 1.0929 1.09158 1.09266 1.09287 1.09236 1.09228 1.09236 1.09228 1.09215 1.09207 1.092 1.09193 1.09186 1.09179 1.09174 1.09168 1.09164 1.09158 1.09154 1.09149 1.09146 1.0914 1.09137 1.09132 1.0913 1.09125 1.09123 1.09117 1.09116 1.09111 1.09109 1.09104 1.09103 1.09098 1.09097 1.09093 1.09092 1.09087 1.09086 1.09082 1.09081 1.09077 1.09076 1.09072 1.09071 1.09067 1.09066 1.09063 1.09061 1.09058 1.09057 1.09054 1.09052 1.0905 1.09048 1.09045 1.09044 1.09041 1.09039 1.09037 1.09035 1.09033 1.09031 1.09029 1.09026 1.09024 1.09022 1.0902 1.09018 1.09016 1.09014 1.09011 1.09009 1.09007 1.09005 1.09002 1.09 1.08998 1.08995 1.08993 1.08991 1.08988 1.08986 1.08983 1.08981 1.08978 1.08975 1.08973 1.0897 1.08967 1.08964 1.08961 1.08958 1.08955 1.08952 1.08948 1.08945 1.08941 1.08938 1.08934 1.08929 1.08924 1.08919 1.08913 1.08905 1.08896 1.08884 1.0887 1.08852 1.0883 1.08802 1.08768 1.08727 1.08677 1.08619 1.08553 1.08477 1.08392 1.08299 1.08198 1.08089 1.07974 1.07853 1.07726 1.07593 1.07452 1.07301 1.07135 1.06949 1.06735 1.06485 1.06189 1.05837 1.05419 1.04926 1.0435 1.03692 1.02959 1.02173 1.01367 1.00583 0.998583 0.992227 0.986897 0.982594 0.979216 0.976611 0.974613 0.973073 0.971862 0.970881 0.970059 0.969341 0.968692 0.968087 0.967511 0.966954 0.966408 0.96587 0.965337 0.964809 0.964283 0.963761 0.96324 0.962721 0.962204 0.961688 0.961174 0.96066 0.960148 0.959636 0.959125 0.958615 0.958105 0.957595 0.957085 0.956575 0.956065 0.955554 0.955043 0.954532 0.954019 0.953506 0.952992 0.952476 0.951959 0.951441 0.950921 0.950399 0.949876 0.94935 0.948822 0.948291 0.947758 0.947222 0.946683 0.94614 0.945594 0.945045 0.944491 0.943934 0.943372 0.942805 0.942233 0.941656 0.941074 0.940485 0.93989 0.939288 0.938679 0.938063 0.937438 0.936805 0.936162 0.93551 0.934847 0.934173 0.933487 0.932788 0.932075 0.931348 0.930604 0.929844 0.929064 0.928265 0.927443 0.926598 0.925727 0.924828 0.923898 0.922934 0.921933 0.920891 0.919804 0.918666 0.917472 0.916216 0.914889 0.913485 0.911994 0.910403 0.9087 0.906888 0.904941 0.902805 0.90056 0.898308 0.895753 0.893042 0.890694 0.888408 0.886498 0.886498 
1.09252 1.09281 1.09272 1.09204 1.09262 1.09279 1.09225 1.09226 1.09238 1.09227 1.09214 1.09208 1.09202 1.09195 1.09188 1.09182 1.09176 1.09171 1.09165 1.09161 1.09156 1.09152 1.09147 1.09144 1.09139 1.09136 1.09131 1.09128 1.09123 1.09121 1.09116 1.09114 1.09109 1.09108 1.09103 1.09102 1.09097 1.09096 1.09091 1.0909 1.09086 1.09085 1.0908 1.0908 1.09075 1.09075 1.09071 1.0907 1.09066 1.09065 1.09061 1.0906 1.09057 1.09056 1.09053 1.09051 1.09048 1.09047 1.09044 1.09042 1.0904 1.09038 1.09035 1.09034 1.09031 1.09029 1.09027 1.09025 1.09023 1.0902 1.09018 1.09016 1.09014 1.09012 1.09009 1.09007 1.09005 1.09003 1.09 1.08998 1.08996 1.08993 1.08991 1.08988 1.08986 1.08983 1.08981 1.08978 1.08975 1.08973 1.0897 1.08967 1.08964 1.08961 1.08958 1.08955 1.08952 1.08948 1.08945 1.08941 1.08938 1.08934 1.0893 1.08925 1.0892 1.08915 1.08908 1.089 1.08891 1.08879 1.08864 1.08846 1.08823 1.08794 1.08759 1.08717 1.08667 1.08609 1.08541 1.08464 1.08378 1.08284 1.08182 1.08072 1.07956 1.07833 1.07705 1.07569 1.07425 1.07271 1.07102 1.06913 1.06697 1.06448 1.06156 1.05812 1.05407 1.04932 1.04378 1.03742 1.0303 1.0226 1.01462 1.00677 0.999455 0.992976 0.987504 0.983062 0.979564 0.976861 0.97479 0.973196 0.971947 0.970942 0.970102 0.969374 0.968718 0.968109 0.96753 0.966971 0.966424 0.965885 0.965352 0.964824 0.964298 0.963775 0.963254 0.962735 0.962218 0.961702 0.961188 0.960674 0.960162 0.95965 0.959139 0.958628 0.958118 0.957608 0.957098 0.956588 0.956078 0.955567 0.955056 0.954544 0.954032 0.953519 0.953004 0.952489 0.951972 0.951454 0.950934 0.950412 0.949888 0.949362 0.948834 0.948304 0.947771 0.947235 0.946696 0.946154 0.945608 0.945059 0.944506 0.943948 0.943387 0.94282 0.942249 0.941673 0.94109 0.940503 0.939908 0.939307 0.938699 0.938084 0.93746 0.936828 0.936187 0.935537 0.934876 0.934204 0.93352 0.932823 0.932114 0.931389 0.930649 0.929893 0.929118 0.928324 0.927509 0.926671 0.925808 0.924918 0.923999 0.923048 0.922061 0.921037 0.919969 0.918856 0.91769 0.916469 0.915184 0.91383 0.9124 0.910888 0.90928 0.90757 0.905775 0.903873 0.901805 0.899694 0.897612 0.895405 0.893261 0.891316 0.889613 0.889613 
1.09311 1.09242 1.09221 1.09248 1.09262 1.09224 1.09225 1.09237 1.09223 1.09212 1.09209 1.09204 1.09196 1.09189 1.09183 1.09178 1.09172 1.09167 1.09162 1.09158 1.09153 1.09149 1.09145 1.09141 1.09136 1.09134 1.09129 1.09126 1.09121 1.09119 1.09114 1.09113 1.09108 1.09106 1.09101 1.091 1.09095 1.09095 1.0909 1.09089 1.09084 1.09084 1.09079 1.09079 1.09074 1.09073 1.09069 1.09069 1.09065 1.09064 1.0906 1.09059 1.09056 1.09054 1.09051 1.0905 1.09047 1.09045 1.09042 1.09041 1.09038 1.09036 1.09034 1.09032 1.0903 1.09028 1.09025 1.09023 1.09021 1.09019 1.09017 1.09014 1.09012 1.0901 1.09008 1.09005 1.09003 1.09001 1.08998 1.08996 1.08994 1.08991 1.08989 1.08986 1.08984 1.08981 1.08978 1.08976 1.08973 1.0897 1.08967 1.08964 1.08961 1.08958 1.08955 1.08952 1.08949 1.08945 1.08942 1.08938 1.08934 1.0893 1.08926 1.08921 1.08916 1.0891 1.08903 1.08895 1.08885 1.08873 1.08858 1.08839 1.08816 1.08787 1.08751 1.08708 1.08658 1.08598 1.0853 1.08452 1.08365 1.0827 1.08167 1.08056 1.07938 1.07814 1.07684 1.07546 1.074 1.07242 1.07071 1.06879 1.06663 1.06415 1.06127 1.05791 1.05399 1.0494 1.04407 1.03792 1.031 1.02345 1.01555 1.0077 1.00031 0.993714 0.988104 0.983527 0.97991 0.977112 0.974968 0.973321 0.972036 0.971005 0.970149 0.96941 0.968747 0.968134 0.967553 0.966992 0.966444 0.965905 0.965372 0.964843 0.964317 0.963794 0.963273 0.962753 0.962236 0.96172 0.961205 0.960692 0.960179 0.959667 0.959156 0.958645 0.958135 0.957625 0.957115 0.956605 0.956094 0.955584 0.955073 0.954561 0.954048 0.953535 0.953021 0.952505 0.951988 0.95147 0.95095 0.950429 0.949905 0.949379 0.948851 0.948321 0.947788 0.947252 0.946714 0.946172 0.945626 0.945078 0.944525 0.943968 0.943407 0.942841 0.94227 0.941695 0.941113 0.940526 0.939933 0.939333 0.938726 0.938112 0.93749 0.93686 0.93622 0.935572 0.934913 0.934243 0.933562 0.932869 0.932162 0.931442 0.930706 0.929954 0.929185 0.928397 0.927589 0.926759 0.925906 0.925026 0.924119 0.923182 0.922212 0.921206 0.920161 0.919073 0.917938 0.916753 0.915512 0.91421 0.912841 0.911402 0.909891 0.908294 0.906612 0.904876 0.903062 0.901148 0.899244 0.897363 0.895489 0.893735 0.892192 0.892192 
1.09218 1.09234 1.0924 1.0924 1.09224 1.09222 1.09231 1.09219 1.0921 1.09209 1.09203 1.09196 1.0919 1.09185 1.09179 1.09173 1.09168 1.09164 1.09159 1.09155 1.0915 1.09147 1.09142 1.09139 1.09134 1.09132 1.09127 1.09124 1.09119 1.09118 1.09113 1.09111 1.09106 1.09105 1.091 1.09099 1.09094 1.09093 1.09088 1.09088 1.09083 1.09082 1.09078 1.09077 1.09073 1.09072 1.09068 1.09067 1.09063 1.09062 1.09059 1.09058 1.09054 1.09053 1.0905 1.09048 1.09045 1.09044 1.09041 1.09039 1.09037 1.09035 1.09032 1.0903 1.09028 1.09026 1.09024 1.09022 1.09019 1.09017 1.09015 1.09013 1.0901 1.09008 1.09006 1.09003 1.09001 1.08999 1.08996 1.08994 1.08991 1.08989 1.08986 1.08984 1.08981 1.08979 1.08976 1.08973 1.0897 1.08967 1.08965 1.08962 1.08958 1.08955 1.08952 1.08949 1.08945 1.08942 1.08938 1.08934 1.0893 1.08926 1.08922 1.08917 1.08912 1.08906 1.08899 1.0889 1.0888 1.08868 1.08852 1.08833 1.08809 1.08779 1.08743 1.087 1.08648 1.08588 1.08519 1.0844 1.08353 1.08257 1.08153 1.08041 1.07922 1.07796 1.07664 1.07524 1.07375 1.07216 1.07041 1.06848 1.06631 1.06385 1.06101 1.05774 1.05393 1.04951 1.04436 1.03842 1.03169 1.02428 1.01646 1.00861 1.00115 0.994441 0.988697 0.983987 0.980254 0.977362 0.975147 0.973448 0.972126 0.971071 0.970199 0.969449 0.96878 0.968163 0.96758 0.967017 0.966468 0.965928 0.965394 0.964865 0.964339 0.963816 0.963294 0.962775 0.962258 0.961741 0.961227 0.960713 0.9602 0.959688 0.959177 0.958666 0.958155 0.957645 0.957135 0.956625 0.956115 0.955604 0.955093 0.954581 0.954069 0.953555 0.953041 0.952526 0.952009 0.951491 0.950971 0.950449 0.949926 0.9494 0.948873 0.948343 0.94781 0.947274 0.946736 0.946195 0.94565 0.945101 0.944549 0.943993 0.943432 0.942867 0.942297 0.941722 0.941142 0.940556 0.939964 0.939365 0.938759 0.938147 0.937526 0.936898 0.93626 0.935614 0.934958 0.934291 0.933613 0.932923 0.93222 0.931504 0.930773 0.930027 0.929264 0.928483 0.927682 0.926861 0.926017 0.92515 0.924256 0.923333 0.92238 0.921394 0.920372 0.919311 0.918208 0.917059 0.91586 0.91461 0.913302 0.911934 0.910505 0.909017 0.907458 0.905837 0.904186 0.90249 0.900761 0.899066 0.897412 0.895824 0.894398 0.894398 
1.0922 1.09227 1.09225 1.0922 1.09217 1.09221 1.09215 1.09207 1.09206 1.09202 1.09195 1.0919 1.09185 1.09179 1.09174 1.09169 1.09164 1.0916 1.09155 1.09152 1.09147 1.09144 1.09139 1.09136 1.09132 1.09129 1.09125 1.09122 1.09117 1.09116 1.09111 1.09109 1.09104 1.09103 1.09098 1.09097 1.09092 1.09092 1.09087 1.09086 1.09081 1.09081 1.09076 1.09076 1.09071 1.09071 1.09066 1.09066 1.09062 1.09061 1.09057 1.09056 1.09053 1.09052 1.09048 1.09047 1.09044 1.09042 1.09039 1.09038 1.09035 1.09033 1.09031 1.09029 1.09026 1.09024 1.09022 1.0902 1.09018 1.09015 1.09013 1.09011 1.09008 1.09006 1.09004 1.09001 1.08999 1.08997 1.08994 1.08992 1.08989 1.08987 1.08984 1.08982 1.08979 1.08976 1.08973 1.08971 1.08968 1.08965 1.08962 1.08959 1.08956 1.08952 1.08949 1.08946 1.08942 1.08938 1.08935 1.08931 1.08927 1.08922 1.08918 1.08913 1.08907 1.08901 1.08894 1.08885 1.08875 1.08862 1.08846 1.08827 1.08802 1.08772 1.08736 1.08692 1.08639 1.08578 1.08509 1.08429 1.08341 1.08244 1.08139 1.08026 1.07906 1.07779 1.07645 1.07503 1.07352 1.0719 1.07014 1.0682 1.06603 1.06358 1.06079 1.05759 1.0539 1.04963 1.04466 1.03892 1.03236 1.02509 1.01735 1.0095 1.00198 0.995159 0.989283 0.984444 0.980597 0.977612 0.975326 0.973576 0.972219 0.97114 0.970252 0.969492 0.968817 0.968196 0.96761 0.967046 0.966496 0.965955 0.965421 0.964891 0.964365 0.963841 0.96332 0.962801 0.962283 0.961766 0.961251 0.960738 0.960225 0.959713 0.959201 0.95869 0.95818 0.957669 0.957159 0.956649 0.956139 0.955628 0.955117 0.954605 0.954093 0.95358 0.953065 0.95255 0.952033 0.951515 0.950996 0.950474 0.949951 0.949426 0.948898 0.948368 0.947836 0.947301 0.946763 0.946222 0.945677 0.945129 0.944578 0.944022 0.943462 0.942898 0.942329 0.941755 0.941175 0.94059 0.939999 0.939402 0.938798 0.938187 0.937569 0.936942 0.936307 0.935663 0.935009 0.934346 0.933671 0.932985 0.932286 0.931575 0.930849 0.930109 0.929352 0.928578 0.927786 0.926974 0.926141 0.925285 0.924404 0.923497 0.922562 0.921596 0.920597 0.919563 0.918491 0.917378 0.916222 0.91502 0.913771 0.912471 0.911118 0.909718 0.908272 0.906774 0.905242 0.903697 0.902136 0.900586 0.89908 0.897629 0.896305 0.896305 
1.0922 1.09214 1.09212 1.09212 1.09212 1.09209 1.09204 1.09202 1.09199 1.09193 1.09189 1.09184 1.09179 1.09174 1.09169 1.09165 1.0916 1.09156 1.09152 1.09149 1.09144 1.09141 1.09137 1.09134 1.09129 1.09127 1.09122 1.0912 1.09115 1.09114 1.09109 1.09108 1.09102 1.09102 1.09096 1.09096 1.0909 1.0909 1.09085 1.09085 1.0908 1.0908 1.09074 1.09074 1.09069 1.09069 1.09065 1.09064 1.0906 1.0906 1.09055 1.09055 1.09051 1.0905 1.09047 1.09045 1.09042 1.09041 1.09038 1.09036 1.09033 1.09032 1.09029 1.09027 1.09025 1.09023 1.0902 1.09018 1.09016 1.09014 1.09011 1.09009 1.09007 1.09004 1.09002 1.09 1.08997 1.08995 1.08992 1.0899 1.08987 1.08985 1.08982 1.08979 1.08977 1.08974 1.08971 1.08968 1.08965 1.08962 1.08959 1.08956 1.08953 1.08949 1.08946 1.08942 1.08939 1.08935 1.08931 1.08927 1.08923 1.08918 1.08914 1.08909 1.08903 1.08896 1.08889 1.0888 1.0887 1.08857 1.0884 1.0882 1.08796 1.08765 1.08728 1.08684 1.08631 1.08569 1.08499 1.08419 1.0833 1.08232 1.08126 1.08012 1.07891 1.07763 1.07627 1.07483 1.07331 1.07166 1.06988 1.06793 1.06576 1.06333 1.06059 1.05747 1.0539 1.04977 1.04497 1.03941 1.03303 1.02589 1.01822 1.01038 1.0028 0.995867 0.989864 0.984897 0.980937 0.977861 0.975506 0.973706 0.972314 0.971211 0.970308 0.969539 0.968857 0.968232 0.967644 0.967078 0.966527 0.965986 0.965451 0.964921 0.964395 0.963871 0.963349 0.96283 0.962312 0.961795 0.96128 0.960766 0.960253 0.959741 0.959229 0.958718 0.958208 0.957697 0.957187 0.956677 0.956166 0.955656 0.955145 0.954633 0.954121 0.953607 0.953093 0.952578 0.952061 0.951543 0.951024 0.950503 0.94998 0.949455 0.948927 0.948398 0.947866 0.947331 0.946794 0.946253 0.945709 0.945162 0.944611 0.944056 0.943497 0.942933 0.942365 0.941792 0.941214 0.94063 0.940041 0.939445 0.938842 0.938233 0.937617 0.936992 0.93636 0.935718 0.935067 0.934407 0.933736 0.933054 0.93236 0.931653 0.930933 0.930198 0.929448 0.928682 0.927898 0.927096 0.926274 0.92543 0.924563 0.923672 0.922754 0.921809 0.920833 0.919826 0.918784 0.917706 0.916591 0.915435 0.914239 0.913001 0.911721 0.910399 0.909042 0.907653 0.906233 0.904801 0.90337 0.901948 0.900557 0.899215 0.897974 0.897974 
1.09204 1.09204 1.09205 1.09204 1.09202 1.09199 1.09197 1.09195 1.0919 1.09186 1.09183 1.09178 1.09174 1.09169 1.09165 1.09161 1.09156 1.09153 1.09149 1.09145 1.09141 1.09138 1.09134 1.09131 1.09127 1.09124 1.0912 1.09118 1.09113 1.09112 1.09107 1.09106 1.091 1.091 1.09094 1.09094 1.09089 1.09089 1.09083 1.09083 1.09078 1.09078 1.09073 1.09073 1.09068 1.09068 1.09063 1.09063 1.09058 1.09058 1.09054 1.09053 1.09049 1.09049 1.09045 1.09044 1.09041 1.09039 1.09036 1.09035 1.09032 1.0903 1.09027 1.09026 1.09023 1.09021 1.09019 1.09016 1.09014 1.09012 1.09009 1.09007 1.09005 1.09002 1.09 1.08998 1.08995 1.08993 1.0899 1.08988 1.08985 1.08982 1.0898 1.08977 1.08974 1.08971 1.08968 1.08966 1.08963 1.08959 1.08956 1.08953 1.0895 1.08946 1.08943 1.08939 1.08936 1.08932 1.08928 1.08924 1.08919 1.08915 1.0891 1.08904 1.08898 1.08892 1.08884 1.08875 1.08864 1.08851 1.08835 1.08814 1.08789 1.08758 1.08721 1.08676 1.08623 1.08561 1.0849 1.08409 1.0832 1.08221 1.08114 1.07999 1.07877 1.07747 1.0761 1.07465 1.0731 1.07144 1.06965 1.06769 1.06552 1.06312 1.06042 1.05738 1.05392 1.04993 1.04529 1.0399 1.03368 1.02667 1.01908 1.01124 1.0036 0.996567 0.990438 0.985347 0.981276 0.97811 0.975687 0.973838 0.972411 0.971286 0.970367 0.969588 0.968901 0.968272 0.967681 0.967114 0.966562 0.966021 0.965486 0.964955 0.964428 0.963904 0.963382 0.962862 0.962344 0.961828 0.961312 0.960798 0.960285 0.959773 0.959261 0.95875 0.958239 0.957729 0.957219 0.956708 0.956198 0.955687 0.955176 0.954664 0.954152 0.953639 0.953125 0.95261 0.952093 0.951575 0.951056 0.950535 0.950012 0.949488 0.948961 0.948431 0.9479 0.947366 0.946828 0.946288 0.945745 0.945198 0.944648 0.944094 0.943535 0.942973 0.942406 0.941834 0.941257 0.940674 0.940086 0.939492 0.938892 0.938284 0.93767 0.937048 0.936418 0.935779 0.935131 0.934474 0.933807 0.933129 0.932439 0.931738 0.931023 0.930295 0.929552 0.928794 0.928019 0.927226 0.926414 0.925583 0.92473 0.923854 0.922955 0.922029 0.921076 0.920095 0.919083 0.918038 0.916961 0.91585 0.914703 0.913521 0.912306 0.911057 0.909777 0.908474 0.907153 0.905819 0.904488 0.903169 0.901875 0.900621 0.89945 0.89945 