# vtk DataFile Version 3.0
LBM simulation at step 40
ASCII
DATASET STRUCTURED_POINTS
DIMENSIONS 256 256 1
ORIGIN 0 0 0
SPACING 1 1 1
POINT_DATA 65536
SCALARS density float
LOOKUP_TABLE default
0.734296 1.07767 1.12445 1.08298 1.07511 1.08391 1.08551 1.08341 1.08246 1.08225 1.08178 1.08111 1.08037 1.07958 1.07874 1.07785 1.07678 1.07516 1.0723 1.06736 1.05963 1.04909 1.03679 1.02469 1.0147 1.00774 1.00361 1.00149 1.00055 1.00018 1.00005 1.00001 1 1 1 1 1 1 1 1 1 1 1 1 1 1 1 1 1 1 1 1 1 1 1 1 1 1 1 1 1 1 1 1 1 1 1 1 1 1 1 1 1 1 1 1 1 1 1 1 1 1 1 1 1 1 1 1 1 1 1 1 1 1 1 1 1 1 1 1 1 1 1 1 1 1 1 1 1 1 1 1 1 1 1 1 1 1 1 1 1 1 1 1 1 1 1 1 1 1 1 1 1 1 1 1 1 1 1 1 1 1 1 1 1 1 1 1 1 1 1 1 1 1 1 1 1 1 1 1 1 1 1 1 1 1 1 1 1 1 1 1 1 1 1 1 1 1 1 1 1 1 1 1 1 1 1 1 1 1 1 1 1 1 1 1 1 1 1 1 1 1 1 1 1 1 1 1 1 1 1 1 1 1 1 1 1 1 1 1 1 1 1 0.999999 0.999997 0.99999 0.999965 0.999894 0.999713 0.999305 0.998492 0.99705 0.994767 0.991521 0.987353 0.982481 0.977245 0.972012 0.967069 0.962566 0.958504 0.954782 0.951249 0.947759 0.944197 0.940494 0.936585 0.932355 0.927759 0.922945 0.91735 0.908787 0.898661 0.893937 0.869455 0.705656 
1.12043 1.05404 1.04959 1.08478 1.08833 1.08295 1.08199 1.08288 1.08264 1.08193 1.08128 1.08072 1.08003 1.07927 1.07837 1.07728 1.0758 1.07369 1.07057 1.06597 1.05931 1.05024 1.03916 1.02749 1.01714 1.00944 1.00459 1.00198 1.00075 1.00025 1.00008 1.00002 1 1 1 1 1 1 1 1 1 1 1 1 1 1 1 1 1 1 1 1 1 1 1 1 1 1 1 1 1 1 1 1 1 1 1 1 1 1 1 1 1 1 1 1 1 1 1 1 1 1 1 1 1 1 1 1 1 1 1 1 1 1 1 1 1 1 1 1 1 1 1 1 1 1 1 1 1 1 1 1 1 1 1 1 1 1 1 1 1 1 1 1 1 1 1 1 1 1 1 1 1 1 1 1 1 1 1 1 1 1 1 1 1 1 1 1 1 1 1 1 1 1 1 1 1 1 1 1 1 1 1 1 1 1 1 1 1 1 1 1 1 1 1 1 1 1 1 1 1 1 1 1 1 1 1 1 1 1 1 1 1 1 1 1 1 1 1 1 1 1 1 1 1 1 1 1 1 1 1 1 1 1 1 1 1 1 1 1 1 1 1 0.999999 0.999996 0.999986 0.999953 0.999862 0.999638 0.999153 0.998219 0.996624 0.994188 0.990839 0.986664 0.981896 0.976851 0.971833 0.967066 0.962656 0.958599 0.954818 0.951199 0.947625 0.943991 0.940208 0.936219 0.931994 0.927346 0.921833 0.915701 0.90993 0.900743 0.875957 0.850599 0.850599 
1.12901 1.05774 1.06674 1.08645 1.08366 1.08126 1.08223 1.08264 1.08198 1.0814 1.08085 1.08029 1.07955 1.07876 1.07776 1.07652 1.07482 1.07252 1.06943 1.0653 1.05961 1.05171 1.04147 1.02998 1.01921 1.01083 1.00538 1.00236 1.00091 1.00031 1.00009 1.00002 1.00001 1 1 1 1 1 1 1 1 1 1 1 1 1 1 1 1 1 1 1 1 1 1 1 1 1 1 1 1 1 1 1 1 1 1 1 1 1 1 1 1 1 1 1 1 1 1 1 1 1 1 1 1 1 1 1 1 1 1 1 1 1 1 1 1 1 1 1 1 1 1 1 1 1 1 1 1 1 1 1 1 1 1 1 1 1 1 1 1 1 1 1 1 1 1 1 1 1 1 1 1 1 1 1 1 1 1 1 1 1 1 1 1 1 1 1 1 1 1 1 1 1 1 1 1 1 1 1 1 1 1 1 1 1 1 1 1 1 1 1 1 1 1 1 1 1 1 1 1 1 1 1 1 1 1 1 1 1 1 1 1 1 1 1 1 1 1 1 1 1 1 1 1 1 1 1 1 1 1 1 1 1 1 1 1 1 1 1 1 1 1 0.999999 0.999996 0.999985 0.999949 0.999849 0.999607 0.999087 0.998098 0.996429 0.993912 0.990503 0.986315 0.981596 0.976656 0.97177 0.967125 0.962798 0.958775 0.954987 0.951335 0.947721 0.944058 0.940262 0.936245 0.931973 0.927472 0.922373 0.915955 0.909168 0.903898 0.89261 0.873922 0.873922 
1.04646 1.0817 1.09446 1.07721 1.07731 1.08274 1.08283 1.08152 1.0811 1.08097 1.08039 1.07976 1.07898 1.07818 1.0771 1.07578 1.07398 1.07161 1.06858 1.06482 1.05989 1.05301 1.04361 1.03238 1.02126 1.01224 1.00618 1.00275 1.00108 1.00037 1.00011 1.00003 1.00001 1 1 1 1 1 1 1 1 1 1 1 1 1 1 1 1 1 1 1 1 1 1 1 1 1 1 1 1 1 1 1 1 1 1 1 1 1 1 1 1 1 1 1 1 1 1 1 1 1 1 1 1 1 1 1 1 1 1 1 1 1 1 1 1 1 1 1 1 1 1 1 1 1 1 1 1 1 1 1 1 1 1 1 1 1 1 1 1 1 1 1 1 1 1 1 1 1 1 1 1 1 1 1 1 1 1 1 1 1 1 1 1 1 1 1 1 1 1 1 1 1 1 1 1 1 1 1 1 1 1 1 1 1 1 1 1 1 1 1 1 1 1 1 1 1 1 1 1 1 1 1 1 1 1 1 1 1 1 1 1 1 1 1 1 1 1 1 1 1 1 1 1 1 1 1 1 1 1 1 1 1 1 1 1 1 1 1 1 1 1 0.999999 0.999996 0.999984 0.999947 0.999845 0.999597 0.999065 0.998059 0.99637 0.993839 0.990434 0.986279 0.981624 0.976765 0.971962 0.967381 0.963089 0.959075 0.955278 0.951613 0.947986 0.944314 0.940541 0.936607 0.932365 0.927749 0.923043 0.917993 0.910651 0.901874 0.896746 0.89053 0.89053 
1.08548 1.08485 1.07736 1.07758 1.08271 1.08186 1.08061 1.0809 1.08088 1.08041 1.07973 1.07919 1.07843 1.07759 1.07643 1.075 1.07306 1.07062 1.06771 1.06442 1.06034 1.05447 1.04586 1.03482 1.0233 1.01362 1.00696 1.00312 1.00123 1.00043 1.00013 1.00003 1.00001 1 1 1 1 1 1 1 1 1 1 1 1 1 1 1 1 1 1 1 1 1 1 1 1 1 1 1 1 1 1 1 1 1 1 1 1 1 1 1 1 1 1 1 1 1 1 1 1 1 1 1 1 1 1 1 1 1 1 1 1 1 1 1 1 1 1 1 1 1 1 1 1 1 1 1 1 1 1 1 1 1 1 1 1 1 1 1 1 1 1 1 1 1 1 1 1 1 1 1 1 1 1 1 1 1 1 1 1 1 1 1 1 1 1 1 1 1 1 1 1 1 1 1 1 1 1 1 1 1 1 1 1 1 1 1 1 1 1 1 1 1 1 1 1 1 1 1 1 1 1 1 1 1 1 1 1 1 1 1 1 1 1 1 1 1 1 1 1 1 1 1 1 1 1 1 1 1 1 1 1 1 1 1 1 1 1 1 1 1 1 0.999999 0.999996 0.999985 0.99995 0.999851 0.999611 0.999092 0.998106 0.996444 0.993951 0.990592 0.986493 0.981904 0.977116 0.972378 0.967846 0.963578 0.959563 0.955747 0.952061 0.948426 0.944764 0.941001 0.937114 0.933071 0.928667 0.923786 0.91897 0.914006 0.907039 0.900278 0.895106 0.895106 
1.08704 1.07992 1.07803 1.08262 1.08122 1.07959 1.08047 1.08077 1.08012 1.07965 1.07914 1.07862 1.07778 1.07689 1.07565 1.07413 1.07209 1.06966 1.06697 1.06421 1.06098 1.05608 1.04817 1.03727 1.02533 1.01497 1.0077 1.00347 1.00137 1.00048 1.00015 1.00004 1.00001 1 1 1 1 1 1 1 1 1 1 1 1 1 1 1 1 1 1 1 1 1 1 1 1 1 1 1 1 1 1 1 1 1 1 1 1 1 1 1 1 1 1 1 1 1 1 1 1 1 1 1 1 1 1 1 1 1 1 1 1 1 1 1 1 1 1 1 1 1 1 1 1 1 1 1 1 1 1 1 1 1 1 1 1 1 1 1 1 1 1 1 1 1 1 1 1 1 1 1 1 1 1 1 1 1 1 1 1 1 1 1 1 1 1 1 1 1 1 1 1 1 1 1 1 1 1 1 1 1 1 1 1 1 1 1 1 1 1 1 1 1 1 1 1 1 1 1 1 1 1 1 1 1 1 1 1 1 1 1 1 1 1 1 1 1 1 1 1 1 1 1 1 1 1 1 1 1 1 1 1 1 1 1 1 1 1 1 1 1 1 0.999999 0.999997 0.999987 0.999955 0.999865 0.999643 0.999157 0.998224 0.996635 0.994229 0.990965 0.986955 0.982442 0.977713 0.973016 0.968506 0.964245 0.960223 0.956391 0.952684 0.949037 0.94539 0.941673 0.937811 0.933808 0.929702 0.925212 0.920111 0.915176 0.910216 0.904436 0.899077 0.899077 
1.07821 1.08018 1.08163 1.08046 1.07917 1.08025 1.08035 1.07972 1.07932 1.07912 1.07852 1.07791 1.07706 1.07612 1.07479 1.07317 1.0711 1.06876 1.06638 1.06422 1.06184 1.05786 1.05057 1.03973 1.02732 1.01627 1.00841 1.0038 1.0015 1.00052 1.00016 1.00004 1.00001 1 1 1 1 1 1 1 1 1 1 1 1 1 1 1 1 1 1 1 1 1 1 1 1 1 1 1 1 1 1 1 1 1 1 1 1 1 1 1 1 1 1 1 1 1 1 1 1 1 1 1 1 1 1 1 1 1 1 1 1 1 1 1 1 1 1 1 1 1 1 1 1 1 1 1 1 1 1 1 1 1 1 1 1 1 1 1 1 1 1 1 1 1 1 1 1 1 1 1 1 1 1 1 1 1 1 1 1 1 1 1 1 1 1 1 1 1 1 1 1 1 1 1 1 1 1 1 1 1 1 1 1 1 1 1 1 1 1 1 1 1 1 1 1 1 1 1 1 1 1 1 1 1 1 1 1 1 1 1 1 1 1 1 1 1 1 1 1 1 1 1 1 1 1 1 1 1 1 1 1 1 1 1 1 1 1 1 1 1 1 0.999999 0.999997 0.999989 0.999962 0.999885 0.999688 0.999252 0.998399 0.996923 0.994655 0.991533 0.987651 0.983232 0.978561 0.973888 0.96938 0.965107 0.961064 0.95721 0.953486 0.949828 0.946178 0.942497 0.938729 0.934786 0.93069 0.926529 0.922025 0.91712 0.912286 0.907215 0.902127 0.902127 
1.08026 1.07998 1.07987 1.07918 1.07974 1.07988 1.07918 1.07904 1.07881 1.07842 1.07775 1.07717 1.07628 1.07526 1.07384 1.07216 1.07011 1.06795 1.06598 1.06449 1.06297 1.05983 1.05307 1.04219 1.02925 1.01751 1.00907 1.00409 1.00162 1.00056 1.00017 1.00005 1.00001 1 1 1 1 1 1 1 1 1 1 1 1 1 1 1 1 1 1 1 1 1 1 1 1 1 1 1 1 1 1 1 1 1 1 1 1 1 1 1 1 1 1 1 1 1 1 1 1 1 1 1 1 1 1 1 1 1 1 1 1 1 1 1 1 1 1 1 1 1 1 1 1 1 1 1 1 1 1 1 1 1 1 1 1 1 1 1 1 1 1 1 1 1 1 1 1 1 1 1 1 1 1 1 1 1 1 1 1 1 1 1 1 1 1 1 1 1 1 1 1 1 1 1 1 1 1 1 1 1 1 1 1 1 1 1 1 1 1 1 1 1 1 1 1 1 1 1 1 1 1 1 1 1 1 1 1 1 1 1 1 1 1 1 1 1 1 1 1 1 1 1 1 1 1 1 1 1 1 1 1 1 1 1 1 1 1 1 1 1 1 1 0.999998 0.999992 0.99997 0.999907 0.999741 0.999366 0.998614 0.997284 0.995198 0.99227 0.988561 0.98427 0.979668 0.975014 0.970492 0.966186 0.962108 0.958221 0.954471 0.950803 0.947156 0.943482 0.939763 0.935952 0.931951 0.927806 0.923592 0.919103 0.914407 0.909677 0.904904 0.904904 
1.08033 1.07907 1.07884 1.0791 1.07919 1.07875 1.07856 1.07852 1.07802 1.0776 1.07699 1.07638 1.07539 1.0743 1.07282 1.07113 1.06917 1.0673 1.06584 1.06508 1.06439 1.062 1.05563 1.04462 1.0311 1.01865 1.00965 1.00435 1.00172 1.00059 1.00018 1.00005 1.00001 1 1 1 1 1 1 1 1 1 1 1 1 1 1 1 1 1 1 1 1 1 1 1 1 1 1 1 1 1 1 1 1 1 1 1 1 1 1 1 1 1 1 1 1 1 1 1 1 1 1 1 1 1 1 1 1 1 1 1 1 1 1 1 1 1 1 1 1 1 1 1 1 1 1 1 1 1 1 1 1 1 1 1 1 1 1 1 1 1 1 1 1 1 1 1 1 1 1 1 1 1 1 1 1 1 1 1 1 1 1 1 1 1 1 1 1 1 1 1 1 1 1 1 1 1 1 1 1 1 1 1 1 1 1 1 1 1 1 1 1 1 1 1 1 1 1 1 1 1 1 1 1 1 1 1 1 1 1 1 1 1 1 1 1 1 1 1 1 1 1 1 1 1 1 1 1 1 1 1 1 1 1 1 1 1 1 1 1 1 1 1 0.999999 0.999994 0.999978 0.999929 0.999796 0.999487 0.998849 0.997691 0.995825 0.99314 0.989657 0.985538 0.981036 0.976411 0.971866 0.967513 0.963382 0.959449 0.955663 0.951971 0.948326 0.944673 0.94097 0.937213 0.933364 0.929347 0.925212 0.920964 0.916518 0.911975 0.907421 0.907421 
1.07879 1.07832 1.07837 1.07836 1.07816 1.07806 1.07793 1.07764 1.07716 1.07682 1.07614 1.07545 1.0744 1.07326 1.07174 1.0701 1.06835 1.06689 1.06604 1.06603 1.06613 1.06436 1.05824 1.04697 1.03282 1.01968 1.01016 1.00456 1.00179 1.00062 1.00019 1.00005 1.00001 1 1 1 1 1 1 1 1 1 1 1 1 1 1 1 1 1 1 1 1 1 1 1 1 1 1 1 1 1 1 1 1 1 1 1 1 1 1 1 1 1 1 1 1 1 1 1 1 1 1 1 1 1 1 1 1 1 1 1 1 1 1 1 1 1 1 1 1 1 1 1 1 1 1 1 1 1 1 1 1 1 1 1 1 1 1 1 1 1 1 1 1 1 1 1 1 1 1 1 1 1 1 1 1 1 1 1 1 1 1 1 1 1 1 1 1 1 1 1 1 1 1 1 1 1 1 1 1 1 1 1 1 1 1 1 1 1 1 1 1 1 1 1 1 1 1 1 1 1 1 1 1 1 1 1 1 1 1 1 1 1 1 1 1 1 1 1 1 1 1 1 1 1 1 1 1 1 1 1 1 1 1 1 1 1 1 1 1 1 1 1 0.999999 0.999996 0.999985 0.999949 0.999848 0.999604 0.999086 0.998114 0.996497 0.9941 0.990899 0.98701 0.982655 0.978089 0.973531 0.969123 0.964922 0.960925 0.95709 0.953365 0.949701 0.946059 0.942392 0.938665 0.934879 0.930998 0.926979 0.922858 0.918618 0.914254 0.909857 0.909857 
1.07801 1.0774 1.07742 1.07739 1.07733 1.07728 1.077 1.07673 1.07632 1.0759 1.07516 1.07442 1.07333 1.07214 1.07065 1.06917 1.06775 1.06682 1.06665 1.06739 1.06818 1.06689 1.06085 1.0492 1.03438 1.02057 1.01059 1.00474 1.00185 1.00064 1.00019 1.00005 1.00001 1 1 1 1 1 1 1 1 1 1 1 1 1 1 1 1 1 1 1 1 1 1 1 1 1 1 1 1 1 1 1 1 1 1 1 1 1 1 1 1 1 1 1 1 1 1 1 1 1 1 1 1 1 1 1 1 1 1 1 1 1 1 1 1 1 1 1 1 1 1 1 1 1 1 1 1 1 1 1 1 1 1 1 1 1 1 1 1 1 1 1 1 1 1 1 1 1 1 1 1 1 1 1 1 1 1 1 1 1 1 1 1 1 1 1 1 1 1 1 1 1 1 1 1 1 1 1 1 1 1 1 1 1 1 1 1 1 1 1 1 1 1 1 1 1 1 1 1 1 1 1 1 1 1 1 1 1 1 1 1 1 1 1 1 1 1 1 1 1 1 1 1 1 1 1 1 1 1 1 1 1 1 1 1 1 1 1 1 1 1 1 1 0.999998 0.99999 0.999965 0.999893 0.999711 0.999308 0.998525 0.997174 0.9951 0.992235 0.988643 0.9845 0.980044 0.975504 0.971049 0.966771 0.962692 0.95879 0.955018 0.951327 0.947673 0.944024 0.940341 0.936599 0.932793 0.928891 0.924881 0.920774 0.916563 0.912299 0.912299 
1.07706 1.07626 1.07633 1.07641 1.07639 1.07628 1.076 1.07579 1.07532 1.07486 1.07409 1.07331 1.07217 1.07101 1.06965 1.06846 1.06749 1.06718 1.06772 1.06917 1.07052 1.06952 1.06339 1.05126 1.03576 1.02133 1.01093 1.00487 1.0019 1.00065 1.0002 1.00005 1.00001 1 1 1 1 1 1 1 1 1 1 1 1 1 1 1 1 1 1 1 1 1 1 1 1 1 1 1 1 1 1 1 1 1 1 1 1 1 1 1 1 1 1 1 1 1 1 1 1 1 1 1 1 1 1 1 1 1 1 1 1 1 1 1 1 1 1 1 1 1 1 1 1 1 1 1 1 1 1 1 1 1 1 1 1 1 1 1 1 1 1 1 1 1 1 1 1 1 1 1 1 1 1 1 1 1 1 1 1 1 1 1 1 1 1 1 1 1 1 1 1 1 1 1 1 1 1 1 1 1 1 1 1 1 1 1 1 1 1 1 1 1 1 1 1 1 1 1 1 1 1 1 1 1 1 1 1 1 1 1 1 1 1 1 1 1 1 1 1 1 1 1 1 1 1 1 1 1 1 1 1 1 1 1 1 1 1 1 1 1 1 1 1 0.999999 0.999994 0.999978 0.999929 0.999801 0.999504 0.998901 0.997818 0.996087 0.993605 0.990376 0.986524 0.982253 0.977787 0.973318 0.968971 0.964802 0.960814 0.956975 0.953242 0.949568 0.945916 0.942257 0.93856 0.934807 0.930988 0.927082 0.923085 0.919 0.914854 0.914854 
1.07583 1.07499 1.07517 1.0753 1.07528 1.07518 1.07495 1.07471 1.0742 1.07372 1.07292 1.07211 1.07101 1.06998 1.06887 1.06809 1.0677 1.06806 1.0693 1.07134 1.07308 1.07217 1.06579 1.0531 1.03692 1.02193 1.01119 1.00496 1.00193 1.00066 1.0002 1.00005 1.00001 1 1 1 1 1 1 1 1 1 1 1 1 1 1 1 1 1 1 1 1 1 1 1 1 1 1 1 1 1 1 1 1 1 1 1 1 1 1 1 1 1 1 1 1 1 1 1 1 1 1 1 1 1 1 1 1 1 1 1 1 1 1 1 1 1 1 1 1 1 1 1 1 1 1 1 1 1 1 1 1 1 1 1 1 1 1 1 1 1 1 1 1 1 1 1 1 1 1 1 1 1 1 1 1 1 1 1 1 1 1 1 1 1 1 1 1 1 1 1 1 1 1 1 1 1 1 1 1 1 1 1 1 1 1 1 1 1 1 1 1 1 1 1 1 1 1 1 1 1 1 1 1 1 1 1 1 1 1 1 1 1 1 1 1 1 1 1 1 1 1 1 1 1 1 1 1 1 1 1 1 1 1 1 1 1 1 1 1 1 1 1 1 0.999999 0.999997 0.999987 0.999957 0.999871 0.999664 0.999223 0.998395 0.997011 0.99494 0.992135 0.988656 0.984661 0.980353 0.975932 0.971552 0.967304 0.963222 0.959299 0.955503 0.951793 0.948127 0.944476 0.940811 0.937108 0.933354 0.929535 0.92564 0.921669 0.917639 0.917639 
1.07452 1.07358 1.07386 1.07405 1.07405 1.07398 1.07375 1.0735 1.07299 1.0725 1.0717 1.07095 1.06998 1.06919 1.06847 1.06822 1.06848 1.06952 1.07137 1.07384 1.07577 1.07476 1.06797 1.05467 1.03786 1.02239 1.01138 1.00503 1.00195 1.00066 1.0002 1.00005 1.00001 1 1 1 1 1 1 1 1 1 1 1 1 1 1 1 1 1 1 1 1 1 1 1 1 1 1 1 1 1 1 1 1 1 1 1 1 1 1 1 1 1 1 1 1 1 1 1 1 1 1 1 1 1 1 1 1 1 1 1 1 1 1 1 1 1 1 1 1 1 1 1 1 1 1 1 1 1 1 1 1 1 1 1 1 1 1 1 1 1 1 1 1 1 1 1 1 1 1 1 1 1 1 1 1 1 1 1 1 1 1 1 1 1 1 1 1 1 1 1 1 1 1 1 1 1 1 1 1 1 1 1 1 1 1 1 1 1 1 1 1 1 1 1 1 1 1 1 1 1 1 1 1 1 1 1 1 1 1 1 1 1 1 1 1 1 1 1 1 1 1 1 1 1 1 1 1 1 1 1 1 1 1 1 1 1 1 1 1 1 1 1 1 1 0.999998 0.999993 0.999975 0.999922 0.999787 0.999483 0.998882 0.997829 0.996177 0.993835 0.990806 0.987186 0.983142 0.978863 0.974518 0.970231 0.966071 0.96206 0.958186 0.954421 0.950727 0.947072 0.943426 0.939766 0.936073 0.932335 0.928541 0.924687 0.920784 0.920784 
1.07298 1.07205 1.07245 1.07269 1.07272 1.07269 1.07247 1.07223 1.07174 1.07128 1.07057 1.06997 1.06926 1.06885 1.06864 1.069 1.0699 1.07154 1.07384 1.07655 1.07846 1.07716 1.06987 1.05595 1.03858 1.02272 1.01151 1.00507 1.00196 1.00067 1.0002 1.00005 1.00001 1 1 1 1 1 1 1 1 1 1 1 1 1 1 1 1 1 1 1 1 1 1 1 1 1 1 1 1 1 1 1 1 1 1 1 1 1 1 1 1 1 1 1 1 1 1 1 1 1 1 1 1 1 1 1 1 1 1 1 1 1 1 1 1 1 1 1 1 1 1 1 1 1 1 1 1 1 1 1 1 1 1 1 1 1 1 1 1 1 1 1 1 1 1 1 1 1 1 1 1 1 1 1 1 1 1 1 1 1 1 1 1 1 1 1 1 1 1 1 1 1 1 1 1 1 1 1 1 1 1 1 1 1 1 1 1 1 1 1 1 1 1 1 1 1 1 1 1 1 1 1 1 1 1 1 1 1 1 1 1 1 1 1 1 1 1 1 1 1 1 1 1 1 1 1 1 1 1 1 1 1 1 1 1 1 1 1 1 1 1 1 1 1 0.999999 0.999997 0.999987 0.999957 0.999874 0.999678 0.999268 0.99851 0.997258 0.995395 0.992869 0.989717 0.986052 0.982034 0.97783 0.973583 0.969394 0.965317 0.96137 0.95754 0.953805 0.950135 0.9465 0.942877 0.939245 0.935591 0.931906 0.928184 0.924433 0.924433 
1.07124 1.07052 1.07104 1.07131 1.07139 1.07139 1.07122 1.07103 1.07061 1.07027 1.06973 1.06941 1.06908 1.06915 1.06951 1.07049 1.07196 1.07405 1.07661 1.07933 1.08101 1.07929 1.07144 1.05694 1.03909 1.02294 1.01159 1.00509 1.00196 1.00067 1.0002 1.00005 1.00001 1 1 1 1 1 1 1 1 1 1 1 1 1 1 1 1 1 1 1 1 1 1 1 1 1 1 1 1 1 1 1 1 1 1 1 1 1 1 1 1 1 1 1 1 1 1 1 1 1 1 1 1 1 1 1 1 1 1 1 1 1 1 1 1 1 1 1 1 1 1 1 1 1 1 1 1 1 1 1 1 1 1 1 1 1 1 1 1 1 1 1 1 1 1 1 1 1 1 1 1 1 1 1 1 1 1 1 1 1 1 1 1 1 1 1 1 1 1 1 1 1 1 1 1 1 1 1 1 1 1 1 1 1 1 1 1 1 1 1 1 1 1 1 1 1 1 1 1 1 1 1 1 1 1 1 1 1 1 1 1 1 1 1 1 1 1 1 1 1 1 1 1 1 1 1 1 1 1 1 1 1 1 1 1 1 1 1 1 1 1 1 1 1 1 0.999999 0.999994 0.999978 0.999931 0.999814 0.999552 0.99904 0.998147 0.996745 0.994745 0.992128 0.988948 0.98532 0.981389 0.9773 0.973174 0.969095 0.96511 0.961233 0.957459 0.953771 0.950144 0.946557 0.942991 0.939431 0.935872 0.932308 0.928747 0.928747 
1.06956 1.06927 1.06982 1.07011 1.07024 1.07031 1.0702 1.07011 1.06984 1.0697 1.06945 1.06951 1.06964 1.07025 1.07117 1.07266 1.07455 1.07689 1.07946 1.08199 1.08329 1.08106 1.07265 1.05765 1.03944 1.02308 1.01163 1.0051 1.00197 1.00067 1.0002 1.00005 1.00001 1 1 1 1 1 1 1 1 1 1 1 1 1 1 1 1 1 1 1 1 1 1 1 1 1 1 1 1 1 1 1 1 1 1 1 1 1 1 1 1 1 1 1 1 1 1 1 1 1 1 1 1 1 1 1 1 1 1 1 1 1 1 1 1 1 1 1 1 1 1 1 1 1 1 1 1 1 1 1 1 1 1 1 1 1 1 1 1 1 1 1 1 1 1 1 1 1 1 1 1 1 1 1 1 1 1 1 1 1 1 1 1 1 1 1 1 1 1 1 1 1 1 1 1 1 1 1 1 1 1 1 1 1 1 1 1 1 1 1 1 1 1 1 1 1 1 1 1 1 1 1 1 1 1 1 1 1 1 1 1 1 1 1 1 1 1 1 1 1 1 1 1 1 1 1 1 1 1 1 1 1 1 1 1 1 1 1 1 1 1 1 1 1 1 0.999999 0.999997 0.99999 0.999966 0.999901 0.999747 0.999425 0.998829 0.997839 0.996348 0.994294 0.991676 0.988555 0.985037 0.981251 0.97732 0.973348 0.969407 0.965539 0.961762 0.958077 0.954473 0.950935 0.947449 0.944004 0.940597 0.937228 0.933905 0.933905 
1.06844 1.06872 1.06919 1.06945 1.06961 1.06974 1.06974 1.0698 1.06973 1.06988 1.06999 1.07047 1.07108 1.07218 1.07355 1.0754 1.07748 1.07983 1.08221 1.08437 1.08519 1.08243 1.07353 1.05813 1.03966 1.02316 1.01166 1.00511 1.00197 1.00067 1.0002 1.00005 1.00001 1 1 1 1 1 1 1 1 1 1 1 1 1 1 1 1 1 1 1 1 1 1 1 1 1 1 1 1 1 1 1 1 1 1 1 1 1 1 1 1 1 1 1 1 1 1 1 1 1 1 1 1 1 1 1 1 1 1 1 1 1 1 1 1 1 1 1 1 1 1 1 1 1 1 1 1 1 1 1 1 1 1 1 1 1 1 1 1 1 1 1 1 1 1 1 1 1 1 1 1 1 1 1 1 1 1 1 1 1 1 1 1 1 1 1 1 1 1 1 1 1 1 1 1 1 1 1 1 1 1 1 1 1 1 1 1 1 1 1 1 1 1 1 1 1 1 1 1 1 1 1 1 1 1 1 1 1 1 1 1 1 1 1 1 1 1 1 1 1 1 1 1 1 1 1 1 1 1 1 1 1 1 1 1 1 1 1 1 1 1 1 1 1 1 1 0.999999 0.999996 0.999985 0.999952 0.999869 0.999682 0.999314 0.998664 0.997627 0.996117 0.99409 0.991556 0.988573 0.985237 0.981657 0.977937 0.974167 0.970411 0.966711 0.96309 0.959555 0.956104 0.952734 0.949441 0.946226 0.943099 0.940074 0.940074 
1.06846 1.0693 1.06956 1.06972 1.06988 1.07005 1.07016 1.07039 1.07057 1.07102 1.07149 1.07237 1.07337 1.07483 1.07646 1.07844 1.08049 1.08264 1.08466 1.08635 1.08666 1.08343 1.07412 1.05843 1.03978 1.0232 1.01167 1.00511 1.00197 1.00067 1.0002 1.00005 1.00001 1 1 1 1 1 1 1 1 1 1 1 1 1 1 1 1 1 1 1 1 1 1 1 1 1 1 1 1 1 1 1 1 1 1 1 1 1 1 1 1 1 1 1 1 1 1 1 1 1 1 1 1 1 1 1 1 1 1 1 1 1 1 1 1 1 1 1 1 1 1 1 1 1 1 1 1 1 1 1 1 1 1 1 1 1 1 1 1 1 1 1 1 1 1 1 1 1 1 1 1 1 1 1 1 1 1 1 1 1 1 1 1 1 1 1 1 1 1 1 1 1 1 1 1 1 1 1 1 1 1 1 1 1 1 1 1 1 1 1 1 1 1 1 1 1 1 1 1 1 1 1 1 1 1 1 1 1 1 1 1 1 1 1 1 1 1 1 1 1 1 1 1 1 1 1 1 1 1 1 1 1 1 1 1 1 1 1 1 1 1 1 1 1 1 1 1 0.999998 0.999994 0.999979 0.999938 0.99984 0.999631 0.999238 0.998571 0.99754 0.996079 0.994156 0.991785 0.989017 0.985933 0.982625 0.979181 0.97568 0.972182 0.968729 0.965349 0.962059 0.958868 0.955785 0.95282 0.949992 0.947322 0.947322 
1.06996 1.0712 1.07118 1.07119 1.07129 1.07148 1.07167 1.07206 1.07246 1.07317 1.07393 1.07508 1.07632 1.07794 1.07961 1.0815 1.08331 1.08509 1.08666 1.08787 1.08772 1.08409 1.07448 1.0586 1.03984 1.02322 1.01167 1.00511 1.00197 1.00067 1.0002 1.00005 1.00001 1 1 1 1 1 1 1 1 1 1 1 1 1 1 1 1 1 1 1 1 1 1 1 1 1 1 1 1 1 1 1 1 1 1 1 1 1 1 1 1 1 1 1 1 1 1 1 1 1 1 1 1 1 1 1 1 1 1 1 1 1 1 1 1 1 1 1 1 1 1 1 1 1 1 1 1 1 1 1 1 1 1 1 1 1 1 1 1 1 1 1 1 1 1 1 1 1 1 1 1 1 1 1 1 1 1 1 1 1 1 1 1 1 1 1 1 1 1 1 1 1 1 1 1 1 1 1 1 1 1 1 1 1 1 1 1 1 1 1 1 1 1 1 1 1 1 1 1 1 1 1 1 1 1 1 1 1 1 1 1 1 1 1 1 1 1 1 1 1 1 1 1 1 1 1 1 1 1 1 1 1 1 1 1 1 1 1 1 1 1 1 1 1 1 1 1 1 0.999998 0.999992 0.999974 0.999927 0.99982 0.999603 0.999209 0.998563 0.997592 0.996242 0.994491 0.992353 0.989869 0.987107 0.984143 0.981053 0.977905 0.974756 0.971651 0.968625 0.965703 0.962907 0.96026 0.957789 0.955526 0.955526 
1.07284 1.07424 1.07395 1.07381 1.07381 1.07399 1.07423 1.07472 1.07525 1.07613 1.07703 1.0783 1.07957 1.08114 1.08265 1.08426 1.0857 1.08704 1.08815 1.08892 1.0884 1.08448 1.07468 1.05868 1.03987 1.02323 1.01167 1.00511 1.00197 1.00067 1.0002 1.00005 1.00001 1 1 1 1 1 1 1 1 1 1 1 1 1 1 1 1 1 1 1 1 1 1 1 1 1 1 1 1 1 1 1 1 1 1 1 1 1 1 1 1 1 1 1 1 1 1 1 1 1 1 1 1 1 1 1 1 1 1 1 1 1 1 1 1 1 1 1 1 1 1 1 1 1 1 1 1 1 1 1 1 1 1 1 1 1 1 1 1 1 1 1 1 1 1 1 1 1 1 1 1 1 1 1 1 1 1 1 1 1 1 1 1 1 1 1 1 1 1 1 1 1 1 1 1 1 1 1 1 1 1 1 1 1 1 1 1 1 1 1 1 1 1 1 1 1 1 1 1 1 1 1 1 1 1 1 1 1 1 1 1 1 1 1 1 1 1 1 1 1 1 1 1 1 1 1 1 1 1 1 1 1 1 1 1 1 1 1 1 1 1 1 1 1 1 1 1 1 0.999999 0.999997 0.99999 0.99997 0.999921 0.999813 0.999602 0.999233 0.998644 0.997776 0.996589 0.995065 0.993217 0.991078 0.988701 0.986151 0.983492 0.980785 0.978084 0.975438 0.972885 0.970462 0.968199 0.966135 0.964306 0.964306 
1.07658 1.07792 1.07745 1.07719 1.07712 1.07726 1.0775 1.07802 1.07859 1.07949 1.08038 1.08158 1.08272 1.08407 1.08527 1.08651 1.08754 1.08845 1.08916 1.08959 1.0888 1.0847 1.07478 1.05872 1.03989 1.02323 1.01167 1.00511 1.00197 1.00067 1.0002 1.00005 1.00001 1 1 1 1 1 1 1 1 1 1 1 1 1 1 1 1 1 1 1 1 1 1 1 1 1 1 1 1 1 1 1 1 1 1 1 1 1 1 1 1 1 1 1 1 1 1 1 1 1 1 1 1 1 1 1 1 1 1 1 1 1 1 1 1 1 1 1 1 1 1 1 1 1 1 1 1 1 1 1 1 1 1 1 1 1 1 1 1 1 1 1 1 1 1 1 1 1 1 1 1 1 1 1 1 1 1 1 1 1 1 1 1 1 1 1 1 1 1 1 1 1 1 1 1 1 1 1 1 1 1 1 1 1 1 1 1 1 1 1 1 1 1 1 1 1 1 1 1 1 1 1 1 1 1 1 1 1 1 1 1 1 1 1 1 1 1 1 1 1 1 1 1 1 1 1 1 1 1 1 1 1 1 1 1 1 1 1 1 1 1 1 1 1 1 1 1 1 1 0.999999 0.999997 0.999989 0.999969 0.999921 0.99982 0.99963 0.999306 0.9988 0.998068 0.997078 0.995819 0.9943 0.992547 0.990604 0.988523 0.986358 0.984165 0.981996 0.979898 0.977915 0.976087 0.974454 0.97306 0.97306 
1.0805 1.08162 1.08109 1.08078 1.08066 1.08077 1.08098 1.08146 1.08196 1.08277 1.08352 1.08453 1.08541 1.08645 1.0873 1.08816 1.0888 1.08936 1.08977 1.08997 1.08901 1.0848 1.07483 1.05874 1.03989 1.02324 1.01167 1.00511 1.00197 1.00067 1.0002 1.00005 1.00001 1 1 1 1 1 1 1 1 1 1 1 1 1 1 1 1 1 1 1 1 1 1 1 1 1 1 1 1 1 1 1 1 1 1 1 1 1 1 1 1 1 1 1 1 1 1 1 1 1 1 1 1 1 1 1 1 1 1 1 1 1 1 1 1 1 1 1 1 1 1 1 1 1 1 1 1 1 1 1 1 1 1 1 1 1 1 1 1 1 1 1 1 1 1 1 1 1 1 1 1 1 1 1 1 1 1 1 1 1 1 1 1 1 1 1 1 1 1 1 1 1 1 1 1 1 1 1 1 1 1 1 1 1 1 1 1 1 1 1 1 1 1 1 1 1 1 1 1 1 1 1 1 1 1 1 1 1 1 1 1 1 1 1 1 1 1 1 1 1 1 1 1 1 1 1 1 1 1 1 1 1 1 1 1 1 1 1 1 1 1 1 1 1 1 1 1 1 1 1 0.999999 0.999997 0.999989 0.999971 0.999928 0.99984 0.999681 0.999416 0.999009 0.998428 0.997652 0.996672 0.995496 0.994145 0.992654 0.991065 0.989425 0.987781 0.986181 0.984671 0.983291 0.982083 0.981091 0.981091 
1.08396 1.08479 1.08432 1.08404 1.08391 1.08398 1.08413 1.08453 1.08492 1.08556 1.0861 1.08686 1.08745 1.08817 1.08869 1.08923 1.08958 1.08989 1.0901 1.09016 1.08911 1.08485 1.07484 1.05874 1.03989 1.02324 1.01167 1.00511 1.00197 1.00067 1.0002 1.00005 1.00001 1 1 1 1 1 1 1 1 1 1 1 1 1 1 1 1 1 1 1 1 1 1 1 1 1 1 1 1 1 1 1 1 1 1 1 1 1 1 1 1 1 1 1 1 1 1 1 1 1 1 1 1 1 1 1 1 1 1 1 1 1 1 1 1 1 1 1 1 1 1 1 1 1 1 1 1 1 1 1 1 1 1 1 1 1 1 1 1 1 1 1 1 1 1 1 1 1 1 1 1 1 1 1 1 1 1 1 1 1 1 1 1 1 1 1 1 1 1 1 1 1 1 1 1 1 1 1 1 1 1 1 1 1 1 1 1 1 1 1 1 1 1 1 1 1 1 1 1 1 1 1 1 1 1 1 1 1 1 1 1 1 1 1 1 1 1 1 1 1 1 1 1 1 1 1 1 1 1 1 1 1 1 1 1 1 1 1 1 1 1 1 1 1 1 1 1 1 1 1 1 0.999999 0.999997 0.99999 0.999974 0.999939 0.99987 0.999746 0.999544 0.999239 0.99881 0.998242 0.99753 0.996683 0.995716 0.994658 0.993541 0.992404 0.991287 0.99023 0.98927 0.988445 0.987792 0.987792 
1.08661 1.08716 1.08681 1.08659 1.08649 1.08654 1.08663 1.08693 1.08717 1.08764 1.08796 1.08848 1.08881 1.08927 1.08953 1.08984 1.09 1.09016 1.09026 1.09024 1.08915 1.08486 1.07485 1.05874 1.03989 1.02324 1.01167 1.00511 1.00197 1.00067 1.0002 1.00005 1.00001 1 1 1 1 1 1 1 1 1 1 1 1 1 1 1 1 1 1 1 1 1 1 1 1 1 1 1 1 1 1 1 1 1 1 1 1 1 1 1 1 1 1 1 1 1 1 1 1 1 1 1 1 1 1 1 1 1 1 1 1 1 1 1 1 1 1 1 1 1 1 1 1 1 1 1 1 1 1 1 1 1 1 1 1 1 1 1 1 1 1 1 1 1 1 1 1 1 1 1 1 1 1 1 1 1 1 1 1 1 1 1 1 1 1 1 1 1 1 1 1 1 1 1 1 1 1 1 1 1 1 1 1 1 1 1 1 1 1 1 1 1 1 1 1 1 1 1 1 1 1 1 1 1 1 1 1 1 1 1 1 1 1 1 1 1 1 1 1 1 1 1 1 1 1 1 1 1 1 1 1 1 1 1 1 1 1 1 1 1 1 1 1 1 1 1 1 1 1 1 1 1 0.999999 0.999997 0.999992 0.99998 0.999953 0.999902 0.999813 0.999671 0.99946 0.999166 0.998782 0.998306 0.997745 0.997112 0.996427 0.995718 0.995012 0.994341 0.993734 0.993218 0.992826 0.992826 
1.08839 1.08872 1.08849 1.08835 1.08827 1.08831 1.08835 1.08856 1.08868 1.08899 1.08914 1.08947 1.08961 1.08988 1.08998 1.09016 1.0902 1.09028 1.09033 1.09028 1.08916 1.08487 1.07485 1.05874 1.03989 1.02324 1.01167 1.00511 1.00197 1.00067 1.0002 1.00005 1.00001 1 1 1 1 1 1 1 1 1 1 1 1 1 1 1 1 1 1 1 1 1 1 1 1 1 1 1 1 1 1 1 1 1 1 1 1 1 1 1 1 1 1 1 1 1 1 1 1 1 1 1 1 1 1 1 1 1 1 1 1 1 1 1 1 1 1 1 1 1 1 1 1 1 1 1 1 1 1 1 1 1 1 1 1 1 1 1 1 1 1 1 1 1 1 1 1 1 1 1 1 1 1 1 1 1 1 1 1 1 1 1 1 1 1 1 1 1 1 1 1 1 1 1 1 1 1 1 1 1 1 1 1 1 1 1 1 1 1 1 1 1 1 1 1 1 1 1 1 1 1 1 1 1 1 1 1 1 1 1 1 1 1 1 1 1 1 1 1 1 1 1 1 1 1 1 1 1 1 1 1 1 1 1 1 1 1 1 1 1 1 1 1 1 1 1 1 1 1 1 1 1 1 0.999999 0.999998 0.999994 0.999985 0.999967 0.999933 0.999874 0.999783 0.999648 0.999465 0.999227 0.998937 0.998599 0.998225 0.99783 0.99743 0.997048 0.996702 0.996411 0.996198 0.996198 
1.08943 1.08961 1.08948 1.0894 1.08935 1.08939 1.08939 1.08953 1.08956 1.08976 1.08979 1.09 1.09002 1.09019 1.0902 1.09029 1.09029 1.09033 1.09035 1.09029 1.08917 1.08487 1.07485 1.05874 1.03989 1.02324 1.01167 1.00511 1.00197 1.00067 1.0002 1.00005 1.00001 1 1 1 1 1 1 1 1 1 1 1 1 1 1 1 1 1 1 1 1 1 1 1 1 1 1 1 1 1 1 1 1 1 1 1 1 1 1 1 1 1 1 1 1 1 1 1 1 1 1 1 1 1 1 1 1 1 1 1 1 1 1 1 1 1 1 1 1 1 1 1 1 1 1 1 1 1 1 1 1 1 1 1 1 1 1 1 1 1 1 1 1 1 1 1 1 1 1 1 1 1 1 1 1 1 1 1 1 1 1 1 1 1 1 1 1 1 1 1 1 1 1 1 1 1 1 1 1 1 1 1 1 1 1 1 1 1 1 1 1 1 1 1 1 1 1 1 1 1 1 1 1 1 1 1 1 1 1 1 1 1 1 1 1 1 1 1 1 1 1 1 1 1 1 1 1 1 1 1 1 1 1 1 1 1 1 1 1 1 1 1 1 1 1 1 1 1 1 1 1 1 1 1 1 0.999999 0.999996 0.99999 0.999979 0.999958 0.999923 0.999869 0.999791 0.999687 0.999554 0.999395 0.999214 0.999018 0.998817 0.998623 0.998447 0.998301 0.998197 0.998197 
1.08997 1.09005 1.09 1.08996 1.08993 1.08996 1.08994 1.09003 1.09001 1.09015 1.09011 1.09025 1.09021 1.09032 1.09028 1.09035 1.09032 1.09034 1.09036 1.09029 1.08917 1.08487 1.07485 1.05874 1.03989 1.02324 1.01167 1.00511 1.00197 1.00067 1.0002 1.00005 1.00001 1 1 1 1 1 1 1 1 1 1 1 1 1 1 1 1 1 1 1 1 1 1 1 1 1 1 1 1 1 1 1 1 1 1 1 1 1 1 1 1 1 1 1 1 1 1 1 1 1 1 1 1 1 1 1 1 1 1 1 1 1 1 1 1 1 1 1 1 1 1 1 1 1 1 1 1 1 1 1 1 1 1 1 1 1 1 1 1 1 1 1 1 1 1 1 1 1 1 1 1 1 1 1 1 1 1 1 1 1 1 1 1 1 1 1 1 1 1 1 1 1 1 1 1 1 1 1 1 1 1 1 1 1 1 1 1 1 1 1 1 1 1 1 1 1 1 1 1 1 1 1 1 1 1 1 1 1 1 1 1 1 1 1 1 1 1 1 1 1 1 1 1 1 1 1 1 1 1 1 1 1 1 1 1 1 1 1 1 1 1 1 1 1 1 1 1 1 1 1 1 1 1 1 1 1 0.999999 0.999998 0.999994 0.999988 0.999976 0.999957 0.999929 0.999888 0.999835 0.999769 0.999692 0.999606 0.999517 0.999429 0.99935 0.999284 0.999239 0.999239 
1.09022 1.09025 1.09023 1.09021 1.0902 1.09022 1.09019 1.09026 1.09021 1.09032 1.09024 1.09035 1.09028 1.09037 1.09031 1.09037 1.09033 1.09035 1.09036 1.09029 1.08917 1.08487 1.07485 1.05874 1.03989 1.02324 1.01167 1.00511 1.00197 1.00067 1.0002 1.00005 1.00001 1 1 1 1 1 1 1 1 1 1 1 1 1 1 1 1 1 1 1 1 1 1 1 1 1 1 1 1 1 1 1 1 1 1 1 1 1 1 1 1 1 1 1 1 1 1 1 1 1 1 1 1 1 1 1 1 1 1 1 1 1 1 1 1 1 1 1 1 1 1 1 1 1 1 1 1 1 1 1 1 1 1 1 1 1 1 1 1 1 1 1 1 1 1 1 1 1 1 1 1 1 1 1 1 1 1 1 1 1 1 1 1 1 1 1 1 1 1 1 1 1 1 1 1 1 1 1 1 1 1 1 1 1 1 1 1 1 1 1 1 1 1 1 1 1 1 1 1 1 1 1 1 1 1 1 1 1 1 1 1 1 1 1 1 1 1 1 1 1 1 1 1 1 1 1 1 1 1 1 1 1 1 1 1 1 1 1 1 1 1 1 1 1 1 1 1 1 1 1 1 1 1 1 1 1 1 0.999999 0.999999 0.999997 0.999994 0.999988 0.999979 0.999965 0.999946 0.999922 0.999893 0.99986 0.999825 0.999791 0.999759 0.999733 0.999716 0.999716 
1.09031 1.09033 1.09032 1.09032 1.0903 1.09033 1.09029 1.09036 1.09029 1.09038 1.09029 1.09039 1.09031 1.09039 1.09032 1.09037 1.09033 1.09035 1.09036 1.09029 1.08917 1.08487 1.07485 1.05874 1.03989 1.02324 1.01167 1.00511 1.00197 1.00067 1.0002 1.00005 1.00001 1 1 1 1 1 1 1 1 1 1 1 1 1 1 1 1 1 1 1 1 1 1 1 1 1 1 1 1 1 1 1 1 1 1 1 1 1 1 1 1 1 1 1 1 1 1 1 1 1 1 1 1 1 1 1 1 1 1 1 1 1 1 1 1 1 1 1 1 1 1 1 1 1 1 1 1 1 1 1 1 1 1 1 1 1 1 1 1 1 1 1 1 1 1 1 1 1 1 1 1 1 1 1 1 1 1 1 1 1 1 1 1 1 1 1 1 1 1 1 1 1 1 1 1 1 1 1 1 1 1 1 1 1 1 1 1 1 1 1 1 1 1 1 1 1 1 1 1 1 1 1 1 1 1 1 1 1 1 1 1 1 1 1 1 1 1 1 1 1 1 1 1 1 1 1 1 1 1 1 1 1 1 1 1 1 1 1 1 1 1 1 1 1 1 1 1 1 1 1 1 1 1 1 1 1 1 1 1 0.999999 0.999999 0.999997 0.999994 0.999991 0.999985 0.999977 0.999968 0.999957 0.999945 0.999933 0.999921 0.999912 0.999907 0.999907 
1.09035 1.09035 1.09036 1.09035 1.09034 1.09037 1.09033 1.09039 1.09031 1.0904 1.09031 1.0904 1.09032 1.09039 1.09033 1.09037 1.09033 1.09035 1.09036 1.09029 1.08917 1.08487 1.07485 1.05874 1.03989 1.02324 1.01167 1.00511 1.00197 1.00067 1.0002 1.00005 1.00001 1 1 1 1 1 1 1 1 1 1 1 1 1 1 1 1 1 1 1 1 1 1 1 1 1 1 1 1 1 1 1 1 1 1 1 1 1 1 1 1 1 1 1 1 1 1 1 1 1 1 1 1 1 1 1 1 1 1 1 1 1 1 1 1 1 1 1 1 1 1 1 1 1 1 1 1 1 1 1 1 1 1 1 1 1 1 1 1 1 1 1 1 1 1 1 1 1 1 1 1 1 1 1 1 1 1 1 1 1 1 1 1 1 1 1 1 1 1 1 1 1 1 1 1 1 1 1 1 1 1 1 1 1 1 1 1 1 1 1 1 1 1 1 1 1 1 1 1 1 1 1 1 1 1 1 1 1 1 1 1 1 1 1 1 1 1 1 1 1 1 1 1 1 1 1 1 1 1 1 1 1 1 1 1 1 1 1 1 1 1 1 1 1 1 1 1 1 1 1 1 1 1 1 1 1 1 1 1 1 1 0.999999 0.999999 0.999998 0.999996 0.999994 0.999991 0.999988 0.999985 0.999981 0.999978 0.999975 0.999973 0.999973 
1.09036 1.09036 1.09037 1.09037 1.09035 1.09038 1.09034 1.0904 1.09032 1.09041 1.09031 1.0904 1.09032 1.09039 1.09033 1.09037 1.09033 1.09035 1.09036 1.09029 1.08917 1.08487 1.07485 1.05874 1.03989 1.02324 1.01167 1.00511 1.00197 1.00067 1.0002 1.00005 1.00001 1 1 1 1 1 1 1 1 1 1 1 1 1 1 1 1 1 1 1 1 1 1 1 1 1 1 1 1 1 1 1 1 1 1 1 1 1 1 1 1 1 1 1 1 1 1 1 1 1 1 1 1 1 1 1 1 1 1 1 1 1 1 1 1 1 1 1 1 1 1 1 1 1 1 1 1 1 1 1 1 1 1 1 1 1 1 1 1 1 1 1 1 1 1 1 1 1 1 1 1 1 1 1 1 1 1 1 1 1 1 1 1 1 1 1 1 1 1 1 1 1 1 1 1 1 1 1 1 1 1 1 1 1 1 1 1 1 1 1 1 1 1 1 1 1 1 1 1 1 1 1 1 1 1 1 1 1 1 1 1 1 1 1 1 1 1 1 1 1 1 1 1 1 1 1 1 1 1 1 1 1 1 1 1 1 1 1 1 1 1 1 1 1 1 1 1 1 1 1 1 1 1 1 1 1 1 1 1 1 1 1 1 1 0.999999 0.999999 0.999998 0.999997 0.999996 0.999995 0.999994 0.999994 0.999993 0.999993 
1.09036 1.09036 1.09037 1.09037 1.09036 1.09038 1.09034 1.0904 1.09032 1.09041 1.09031 1.09041 1.09032 1.09039 1.09033 1.09037 1.09033 1.09035 1.09036 1.09029 1.08917 1.08487 1.07485 1.05874 1.03989 1.02324 1.01167 1.00511 1.00197 1.00067 1.0002 1.00005 1.00001 1 1 1 1 1 1 1 1 1 1 1 1 1 1 1 1 1 1 1 1 1 1 1 1 1 1 1 1 1 1 1 1 1 1 1 1 1 1 1 1 1 1 1 1 1 1 1 1 1 1 1 1 1 1 1 1 1 1 1 1 1 1 1 1 1 1 1 1 1 1 1 1 1 1 1 1 1 1 1 1 1 1 1 1 1 1 1 1 1 1 1 1 1 1 1 1 1 1 1 1 1 1 1 1 1 1 1 1 1 1 1 1 1 1 1 1 1 1 1 1 1 1 1 1 1 1 1 1 1 1 1 1 1 1 1 1 1 1 1 1 1 1 1 1 1 1 1 1 1 1 1 1 1 1 1 1 1 1 1 1 1 1 1 1 1 1 1 1 1 1 1 1 1 1 1 1 1 1 1 1 1 1 1 1 1 1 1 1 1 1 1 1 1 1 1 1 1 1 1 1 1 1 1 1 1 1 1 1 1 1 1 1 1 1 1 1 0.999999 0.999999 0.999999 0.999999 0.999999 0.999999 0.999999 