# vtk DataFile Version 3.0
LBM simulation at step 90
ASCII
DATASET STRUCTURED_POINTS
DIMENSIONS 256 256 1
ORIGIN 0 0 0
SPACING 1 1 1
POINT_DATA 65536
SCALARS density float
LOOKUP_TABLE default
0.73962 1.08528 1.13195 1.08989 1.08182 1.09072 1.09255 1.09077 1.09017 1.0903 1.09021 1.08997 1.08977 1.08961 1.08945 1.0893 1.08915 1.08902 1.08888 1.08875 1.08862 1.08849 1.08837 1.08824 1.08812 1.08799 1.08786 1.08773 1.08759 1.08745 1.08731 1.08715 1.08699 1.08682 1.08664 1.08644 1.08623 1.08599 1.08574 1.08547 1.0852 1.08493 1.08463 1.08424 1.08359 1.08242 1.08033 1.07685 1.07157 1.06428 1.05516 1.04485 1.03433 1.02464 1.01658 1.01047 1.00622 1.00349 1.00185 1.00093 1.00044 1.0002 1.00008 1.00003 1.00001 1 1 1 1 1 1 1 1 1 1 1 1 1 1 1 1 1 1 1 1 1 1 1 1 1 1 1 1 1 1 1 1 1 1 1 1 1 1 1 1 1 1 1 1 1 1 1 1 1 1 1 1 1 1 1 1 1 1 1 1 1 1 1 1 1 1 1 1 1 1 1 1 1 1 1 1 1 1 1 1 1 1 1 1 1 1 1 1 1 1 1 1 1 1 1 1 1 1 1 1 1 1 1 1 1 1 1 1 1 1 1 1 1 1 1 1 1 1 1 1 1 1 1 1 1 1 0.999999 0.999997 0.999993 0.999984 0.999965 0.999926 0.999852 0.999719 0.999496 0.999139 0.998599 0.997828 0.996781 0.995432 0.993777 0.991839 0.989664 0.987322 0.98489 0.982445 0.980056 0.977772 0.975622 0.973617 0.971749 0.969999 0.968342 0.966754 0.965213 0.963703 0.962213 0.960735 0.959265 0.957799 0.956335 0.954872 0.953406 0.951934 0.950453 0.94896 0.947452 0.945925 0.944374 0.942797 0.941187 0.93954 0.937848 0.936105 0.934302 0.932428 0.93047 0.928411 0.92623 0.923899 0.92139 0.918651 0.915566 0.912053 0.908224 0.90362 0.896137 0.886741 0.882318 0.859614 0.700324 
1.12832 1.06175 1.05687 1.092 1.09551 1.0901 1.08929 1.09045 1.09056 1.0902 1.08997 1.08986 1.0897 1.08955 1.08938 1.08924 1.08909 1.08896 1.08882 1.0887 1.08856 1.08844 1.0883 1.08818 1.08805 1.08792 1.08779 1.08765 1.08751 1.08737 1.08721 1.08706 1.08689 1.08671 1.08652 1.08631 1.08608 1.08583 1.08557 1.08528 1.08498 1.08465 1.08426 1.08371 1.08285 1.08145 1.07919 1.07574 1.07078 1.0641 1.05577 1.04618 1.03612 1.02655 1.01829 1.01181 1.00717 1.0041 1.00221 1.00113 1.00055 1.00025 1.00011 1.00004 1.00002 1.00001 1 1 1 1 1 1 1 1 1 1 1 1 1 1 1 1 1 1 1 1 1 1 1 1 1 1 1 1 1 1 1 1 1 1 1 1 1 1 1 1 1 1 1 1 1 1 1 1 1 1 1 1 1 1 1 1 1 1 1 1 1 1 1 1 1 1 1 1 1 1 1 1 1 1 1 1 1 1 1 1 1 1 1 1 1 1 1 1 1 1 1 1 1 1 1 1 1 1 1 1 1 1 1 1 1 1 1 1 1 1 1 1 1 1 1 1 1 1 1 1 1 1 1 1 0.999999 0.999999 0.999996 0.999991 0.99998 0.999957 0.999911 0.999825 0.999674 0.999424 0.999033 0.998453 0.997638 0.99655 0.995169 0.993496 0.991558 0.989404 0.987097 0.984712 0.982318 0.979976 0.977732 0.975611 0.973623 0.971761 0.970008 0.968344 0.966747 0.965198 0.96368 0.962184 0.960701 0.959226 0.957757 0.95629 0.954823 0.953352 0.951875 0.95039 0.948891 0.947377 0.945843 0.944285 0.942699 0.94108 0.939422 0.937718 0.935961 0.934142 0.932248 0.930266 0.928179 0.925966 0.923595 0.92102 0.918198 0.915097 0.91154 0.907085 0.901906 0.896995 0.88876 0.865276 0.8417 0.8417 
1.13746 1.06582 1.07466 1.09424 1.09126 1.08877 1.08988 1.09051 1.09019 1.08996 1.08987 1.08977 1.0896 1.08946 1.0893 1.08917 1.08901 1.08889 1.08874 1.08863 1.08848 1.08837 1.08823 1.08811 1.08797 1.08784 1.0877 1.08756 1.08741 1.08727 1.08711 1.08694 1.08676 1.08657 1.08637 1.08615 1.08591 1.08564 1.08536 1.08504 1.0847 1.0843 1.08381 1.08314 1.08215 1.08064 1.07836 1.07506 1.07044 1.0643 1.05659 1.04754 1.03779 1.02822 1.01975 1.01294 1.00796 1.0046 1.00251 1.0013 1.00063 1.00029 1.00013 1.00005 1.00002 1.00001 1 1 1 1 1 1 1 1 1 1 1 1 1 1 1 1 1 1 1 1 1 1 1 1 1 1 1 1 1 1 1 1 1 1 1 1 1 1 1 1 1 1 1 1 1 1 1 1 1 1 1 1 1 1 1 1 1 1 1 1 1 1 1 1 1 1 1 1 1 1 1 1 1 1 1 1 1 1 1 1 1 1 1 1 1 1 1 1 1 1 1 1 1 1 1 1 1 1 1 1 1 1 1 1 1 1 1 1 1 1 1 1 1 1 1 1 1 1 1 1 1 1 1 1 0.999999 0.999998 0.999996 0.99999 0.999978 0.999952 0.999901 0.999807 0.999644 0.999377 0.998963 0.998354 0.997506 0.996387 0.994979 0.99329 0.991348 0.989203 0.98692 0.984567 0.982211 0.979908 0.977698 0.975605 0.973635 0.971784 0.970036 0.968371 0.966769 0.965214 0.963691 0.962189 0.960702 0.959224 0.957751 0.956281 0.954811 0.953337 0.951857 0.950368 0.948866 0.947348 0.94581 0.944248 0.942657 0.941034 0.939371 0.937662 0.935899 0.934074 0.932174 0.930186 0.928093 0.925872 0.923501 0.920937 0.918108 0.914974 0.911566 0.907555 0.902183 0.896389 0.892291 0.882432 0.865599 0.865599 
1.05433 1.09011 1.10293 1.08538 1.0853 1.09069 1.09088 1.08974 1.08968 1.08989 1.08979 1.08962 1.08947 1.08936 1.0892 1.08908 1.08892 1.08881 1.08866 1.08855 1.0884 1.08829 1.08814 1.08802 1.08788 1.08775 1.0876 1.08747 1.08731 1.08716 1.08699 1.08682 1.08663 1.08643 1.08622 1.08598 1.08573 1.08545 1.08514 1.0848 1.08441 1.08396 1.0834 1.08265 1.08158 1.08001 1.07775 1.07456 1.07021 1.06449 1.05729 1.04873 1.03928 1.02978 1.02113 1.01402 1.00872 1.0051 1.00281 1.00146 1.00072 1.00033 1.00015 1.00006 1.00002 1.00001 1 1 1 1 1 1 1 1 1 1 1 1 1 1 1 1 1 1 1 1 1 1 1 1 1 1 1 1 1 1 1 1 1 1 1 1 1 1 1 1 1 1 1 1 1 1 1 1 1 1 1 1 1 1 1 1 1 1 1 1 1 1 1 1 1 1 1 1 1 1 1 1 1 1 1 1 1 1 1 1 1 1 1 1 1 1 1 1 1 1 1 1 1 1 1 1 1 1 1 1 1 1 1 1 1 1 1 1 1 1 1 1 1 1 1 1 1 1 1 1 1 1 1 1 0.999999 0.999998 0.999996 0.999989 0.999976 0.999948 0.999893 0.999794 0.999622 0.999341 0.998909 0.99828 0.99741 0.99627 0.994846 0.993147 0.991206 0.989073 0.98681 0.984484 0.982157 0.979883 0.977698 0.975625 0.97367 0.971826 0.970081 0.968416 0.966812 0.965254 0.963727 0.962222 0.960732 0.959252 0.957777 0.956305 0.954833 0.953357 0.951876 0.950385 0.948881 0.947362 0.945822 0.944259 0.942668 0.941044 0.939381 0.937674 0.935913 0.934091 0.932197 0.930218 0.928139 0.925936 0.923585 0.921067 0.918345 0.91529 0.911825 0.908233 0.904296 0.898118 0.890756 0.887403 0.883295 0.883295 
1.09375 1.09351 1.08597 1.08606 1.09112 1.0902 1.08906 1.08952 1.08985 1.08971 1.08953 1.08947 1.08935 1.08925 1.08908 1.08898 1.08882 1.08872 1.08856 1.08846 1.0883 1.0882 1.08805 1.08793 1.08778 1.08766 1.0875 1.08736 1.0872 1.08704 1.08687 1.08669 1.0865 1.08629 1.08606 1.08582 1.08555 1.08526 1.08493 1.08456 1.08415 1.08365 1.08303 1.0822 1.08104 1.07941 1.07715 1.07407 1.06999 1.0647 1.058 1.0499 1.04074 1.03129 1.02248 1.01508 1.00947 1.00558 1.00309 1.00162 1.0008 1.00037 1.00017 1.00007 1.00003 1.00001 1 1 1 1 1 1 1 1 1 1 1 1 1 1 1 1 1 1 1 1 1 1 1 1 1 1 1 1 1 1 1 1 1 1 1 1 1 1 1 1 1 1 1 1 1 1 1 1 1 1 1 1 1 1 1 1 1 1 1 1 1 1 1 1 1 1 1 1 1 1 1 1 1 1 1 1 1 1 1 1 1 1 1 1 1 1 1 1 1 1 1 1 1 1 1 1 1 1 1 1 1 1 1 1 1 1 1 1 1 1 1 1 1 1 1 1 1 1 1 1 1 1 1 1 0.999999 0.999998 0.999995 0.999989 0.999975 0.999945 0.999888 0.999785 0.999607 0.999318 0.998874 0.998231 0.997346 0.996192 0.994758 0.993056 0.991119 0.988999 0.986756 0.984455 0.982155 0.979906 0.977742 0.975685 0.973739 0.9719 0.970156 0.968488 0.966881 0.965319 0.96379 0.962282 0.96079 0.959308 0.957832 0.956359 0.954886 0.95341 0.951927 0.950436 0.948933 0.947414 0.945876 0.944314 0.942726 0.941105 0.939447 0.937745 0.935993 0.934182 0.932303 0.930343 0.92829 0.926128 0.923831 0.921366 0.918731 0.915914 0.912723 0.909063 0.905543 0.901919 0.896376 0.891479 0.888527 0.888527 
1.09563 1.08877 1.08682 1.09143 1.08996 1.08831 1.08933 1.08981 1.08951 1.08937 1.08938 1.08934 1.08919 1.0891 1.08896 1.08887 1.08871 1.08862 1.08846 1.08837 1.0882 1.08811 1.08795 1.08784 1.08768 1.08756 1.0874 1.08726 1.08709 1.08693 1.08675 1.08656 1.08636 1.08615 1.08591 1.08566 1.08538 1.08507 1.08472 1.08433 1.08388 1.08333 1.08265 1.08174 1.08051 1.07884 1.07659 1.07365 1.06983 1.06493 1.05871 1.05104 1.04217 1.03277 1.0238 1.01612 1.0102 1.00604 1.00337 1.00177 1.00088 1.00041 1.00018 1.00008 1.00003 1.00001 1 1 1 1 1 1 1 1 1 1 1 1 1 1 1 1 1 1 1 1 1 1 1 1 1 1 1 1 1 1 1 1 1 1 1 1 1 1 1 1 1 1 1 1 1 1 1 1 1 1 1 1 1 1 1 1 1 1 1 1 1 1 1 1 1 1 1 1 1 1 1 1 1 1 1 1 1 1 1 1 1 1 1 1 1 1 1 1 1 1 1 1 1 1 1 1 1 1 1 1 1 1 1 1 1 1 1 1 1 1 1 1 1 1 1 1 1 1 1 1 1 1 1 1 0.999999 0.999998 0.999995 0.999989 0.999974 0.999944 0.999886 0.999781 0.999599 0.999305 0.998856 0.998205 0.997313 0.996153 0.994715 0.993015 0.991085 0.988978 0.986754 0.984475 0.982199 0.979971 0.977825 0.97578 0.973843 0.972007 0.970262 0.968592 0.966981 0.965415 0.963882 0.962371 0.960877 0.959393 0.957916 0.956442 0.954969 0.953492 0.952011 0.95052 0.949018 0.947501 0.945965 0.944407 0.942823 0.941208 0.939558 0.937866 0.936126 0.934332 0.932473 0.930541 0.928522 0.926403 0.924174 0.921806 0.919252 0.916538 0.913716 0.910512 0.906773 0.903357 0.900004 0.896091 0.892878 0.892878 
1.08687 1.08927 1.09074 1.08958 1.08828 1.08939 1.08965 1.0892 1.08917 1.08931 1.08924 1.08915 1.08903 1.08897 1.08883 1.08875 1.08859 1.08851 1.08835 1.08826 1.0881 1.08801 1.08784 1.08774 1.08757 1.08745 1.08729 1.08715 1.08697 1.08681 1.08662 1.08643 1.08622 1.086 1.08576 1.08549 1.0852 1.08487 1.0845 1.08408 1.08359 1.083 1.08226 1.08129 1.08 1.0783 1.07609 1.07328 1.06973 1.06521 1.05943 1.05217 1.04356 1.03421 1.02508 1.01713 1.0109 1.0065 1.00363 1.00191 1.00095 1.00045 1.0002 1.00008 1.00003 1.00001 1 1 1 1 1 1 1 1 1 1 1 1 1 1 1 1 1 1 1 1 1 1 1 1 1 1 1 1 1 1 1 1 1 1 1 1 1 1 1 1 1 1 1 1 1 1 1 1 1 1 1 1 1 1 1 1 1 1 1 1 1 1 1 1 1 1 1 1 1 1 1 1 1 1 1 1 1 1 1 1 1 1 1 1 1 1 1 1 1 1 1 1 1 1 1 1 1 1 1 1 1 1 1 1 1 1 1 1 1 1 1 1 1 1 1 1 1 1 1 1 1 1 1 1 0.999999 0.999998 0.999995 0.999989 0.999974 0.999944 0.999886 0.999781 0.999599 0.999304 0.998854 0.998202 0.99731 0.99615 0.994716 0.993021 0.991102 0.989009 0.986803 0.984543 0.982286 0.980077 0.977946 0.975911 0.973979 0.972145 0.970399 0.968726 0.967111 0.965541 0.964004 0.96249 0.960993 0.959507 0.958029 0.956555 0.955081 0.953605 0.952124 0.950635 0.949135 0.94762 0.946088 0.944535 0.942957 0.94135 0.939709 0.938029 0.936304 0.934528 0.932694 0.930792 0.928814 0.926745 0.924574 0.922299 0.919892 0.917293 0.91456 0.911793 0.908705 0.905346 0.902222 0.899027 0.896036 0.896036 
1.08922 1.08945 1.08937 1.08869 1.08928 1.08948 1.08897 1.08903 1.08918 1.08913 1.08901 1.08898 1.08889 1.08883 1.08868 1.08862 1.08846 1.08839 1.08823 1.08815 1.08799 1.0879 1.08773 1.08763 1.08746 1.08734 1.08717 1.08703 1.08685 1.08669 1.08649 1.0863 1.08608 1.08585 1.08559 1.08532 1.08501 1.08466 1.08427 1.08383 1.0833 1.08267 1.08187 1.08084 1.07951 1.07779 1.07563 1.07297 1.06967 1.06552 1.06016 1.0533 1.04494 1.03562 1.02634 1.01811 1.01159 1.00693 1.00389 1.00205 1.00102 1.00048 1.00021 1.00009 1.00004 1.00001 1 1 1 1 1 1 1 1 1 1 1 1 1 1 1 1 1 1 1 1 1 1 1 1 1 1 1 1 1 1 1 1 1 1 1 1 1 1 1 1 1 1 1 1 1 1 1 1 1 1 1 1 1 1 1 1 1 1 1 1 1 1 1 1 1 1 1 1 1 1 1 1 1 1 1 1 1 1 1 1 1 1 1 1 1 1 1 1 1 1 1 1 1 1 1 1 1 1 1 1 1 1 1 1 1 1 1 1 1 1 1 1 1 1 1 1 1 1 1 1 1 1 1 1 0.999999 0.999998 0.999995 0.999989 0.999975 0.999945 0.999888 0.999784 0.999605 0.999314 0.998867 0.998221 0.997335 0.996183 0.994759 0.993075 0.991169 0.989092 0.986902 0.98466 0.982419 0.980224 0.978104 0.976077 0.974148 0.972314 0.970566 0.968889 0.96727 0.965696 0.964155 0.962638 0.961139 0.959651 0.958172 0.956697 0.955223 0.953747 0.952267 0.95078 0.949282 0.947771 0.946243 0.944695 0.943124 0.941525 0.939895 0.938228 0.93652 0.934765 0.932956 0.931086 0.929148 0.927133 0.925027 0.922818 0.920521 0.918109 0.915512 0.912821 0.910114 0.907214 0.904254 0.901398 0.898675 0.898675 
1.08978 1.08903 1.08883 1.0891 1.08925 1.08889 1.08892 1.08907 1.08896 1.0889 1.08886 1.08884 1.08873 1.08867 1.08854 1.08849 1.08834 1.08827 1.08811 1.08804 1.08787 1.08779 1.08762 1.08752 1.08735 1.08723 1.08705 1.08691 1.08673 1.08656 1.08636 1.08616 1.08593 1.08569 1.08542 1.08513 1.08481 1.08445 1.08404 1.08356 1.083 1.08233 1.08148 1.0804 1.07903 1.07732 1.07522 1.07271 1.06967 1.06587 1.06092 1.05442 1.04629 1.03701 1.02757 1.01907 1.01226 1.00735 1.00413 1.00219 1.00109 1.00051 1.00023 1.0001 1.00004 1.00001 1.00001 1 1 1 1 1 1 1 1 1 1 1 1 1 1 1 1 1 1 1 1 1 1 1 1 1 1 1 1 1 1 1 1 1 1 1 1 1 1 1 1 1 1 1 1 1 1 1 1 1 1 1 1 1 1 1 1 1 1 1 1 1 1 1 1 1 1 1 1 1 1 1 1 1 1 1 1 1 1 1 1 1 1 1 1 1 1 1 1 1 1 1 1 1 1 1 1 1 1 1 1 1 1 1 1 1 1 1 1 1 1 1 1 1 1 1 1 1 1 1 1 1 1 1 0.999999 0.999998 0.999996 0.999989 0.999976 0.999948 0.999893 0.999792 0.999617 0.999333 0.998896 0.998261 0.997388 0.996251 0.994842 0.993176 0.991286 0.989225 0.987052 0.984825 0.982597 0.980413 0.978301 0.976278 0.974351 0.972515 0.970764 0.969082 0.967459 0.96588 0.964335 0.962815 0.961313 0.959824 0.958343 0.956868 0.955394 0.953919 0.95244 0.950954 0.949459 0.947951 0.946428 0.944886 0.943322 0.941732 0.940113 0.938461 0.93677 0.935035 0.933253 0.931415 0.929515 0.927548 0.925509 0.923381 0.921157 0.91886 0.916469 0.913938 0.911355 0.908734 0.906029 0.903359 0.900825 0.900825 
1.08882 1.08892 1.08898 1.08899 1.08883 1.08882 1.08892 1.08884 1.08876 1.08878 1.08872 1.08867 1.08857 1.08853 1.0884 1.08835 1.0882 1.08815 1.08799 1.08792 1.08775 1.08767 1.0875 1.0874 1.08723 1.08711 1.08693 1.08678 1.08659 1.08642 1.08621 1.08601 1.08577 1.08552 1.08525 1.08494 1.0846 1.08422 1.08379 1.08329 1.0827 1.08198 1.08109 1.07997 1.07858 1.07687 1.07485 1.0725 1.06972 1.06627 1.0617 1.05555 1.04763 1.03837 1.02877 1.02 1.0129 1.00776 1.00437 1.00231 1.00115 1.00054 1.00024 1.0001 1.00004 1.00002 1.00001 1 1 1 1 1 1 1 1 1 1 1 1 1 1 1 1 1 1 1 1 1 1 1 1 1 1 1 1 1 1 1 1 1 1 1 1 1 1 1 1 1 1 1 1 1 1 1 1 1 1 1 1 1 1 1 1 1 1 1 1 1 1 1 1 1 1 1 1 1 1 1 1 1 1 1 1 1 1 1 1 1 1 1 1 1 1 1 1 1 1 1 1 1 1 1 1 1 1 1 1 1 1 1 1 1 1 1 1 1 1 1 1 1 1 1 1 1 1 1 1 1 1 1 0.999999 0.999998 0.999996 0.99999 0.999977 0.999951 0.999899 0.999802 0.999635 0.99936 0.998937 0.998319 0.997466 0.996351 0.994965 0.99332 0.991452 0.989409 0.987252 0.985038 0.982822 0.980645 0.978538 0.976517 0.974588 0.97275 0.970993 0.969307 0.967678 0.966094 0.964545 0.963021 0.961517 0.960026 0.958544 0.957068 0.955594 0.954119 0.952642 0.951158 0.949666 0.948162 0.946643 0.945107 0.943551 0.941971 0.940363 0.938725 0.937051 0.935338 0.93358 0.931774 0.929913 0.927991 0.926005 0.923953 0.92182 0.919602 0.917326 0.914972 0.912531 0.910061 0.907564 0.905063 0.902661 0.902661 
1.08881 1.08881 1.08879 1.08874 1.08872 1.08877 1.08871 1.08866 1.08865 1.08863 1.08855 1.08852 1.08843 1.08839 1.08826 1.08821 1.08807 1.08802 1.08786 1.08779 1.08763 1.08755 1.08738 1.08727 1.0871 1.08698 1.0868 1.08665 1.08646 1.08628 1.08607 1.08585 1.08561 1.08535 1.08506 1.08475 1.08439 1.084 1.08354 1.08301 1.08239 1.08163 1.0807 1.07955 1.07814 1.07645 1.07452 1.07234 1.06982 1.0667 1.0625 1.05668 1.04896 1.03971 1.02994 1.0209 1.01352 1.00814 1.00459 1.00243 1.00121 1.00057 1.00025 1.00011 1.00004 1.00002 1.00001 1 1 1 1 1 1 1 1 1 1 1 1 1 1 1 1 1 1 1 1 1 1 1 1 1 1 1 1 1 1 1 1 1 1 1 1 1 1 1 1 1 1 1 1 1 1 1 1 1 1 1 1 1 1 1 1 1 1 1 1 1 1 1 1 1 1 1 1 1 1 1 1 1 1 1 1 1 1 1 1 1 1 1 1 1 1 1 1 1 1 1 1 1 1 1 1 1 1 1 1 1 1 1 1 1 1 1 1 1 1 1 1 1 1 1 1 1 1 1 1 1 1 1 0.999999 0.999999 0.999996 0.999991 0.999979 0.999955 0.999906 0.999815 0.999657 0.999395 0.998989 0.998394 0.997567 0.996481 0.995124 0.993507 0.991664 0.989643 0.987502 0.985302 0.983094 0.980922 0.978816 0.976794 0.974862 0.973019 0.971256 0.969563 0.967928 0.966338 0.964785 0.963257 0.96175 0.960257 0.958774 0.957297 0.955823 0.954349 0.952872 0.951391 0.949901 0.948401 0.946888 0.945359 0.94381 0.942239 0.940643 0.939019 0.937362 0.935669 0.933937 0.93216 0.930335 0.928458 0.926522 0.924527 0.922474 0.92035 0.91816 0.91592 0.913621 0.911274 0.908911 0.906547 0.904254 0.904254 
1.08876 1.08863 1.08861 1.08861 1.08861 1.08859 1.08854 1.08854 1.0885 1.08846 1.0884 1.08838 1.08828 1.08824 1.08812 1.08808 1.08793 1.08788 1.08773 1.08766 1.0875 1.08742 1.08725 1.08715 1.08697 1.08685 1.08666 1.08651 1.08631 1.08613 1.08591 1.08569 1.08544 1.08517 1.08487 1.08455 1.08418 1.08376 1.08328 1.08273 1.08207 1.08128 1.08032 1.07913 1.07771 1.07607 1.07423 1.07223 1.06997 1.06719 1.06334 1.05781 1.05027 1.04102 1.03108 1.02177 1.01411 1.00851 1.00479 1.00254 1.00126 1.00059 1.00026 1.00011 1.00004 1.00002 1.00001 1 1 1 1 1 1 1 1 1 1 1 1 1 1 1 1 1 1 1 1 1 1 1 1 1 1 1 1 1 1 1 1 1 1 1 1 1 1 1 1 1 1 1 1 1 1 1 1 1 1 1 1 1 1 1 1 1 1 1 1 1 1 1 1 1 1 1 1 1 1 1 1 1 1 1 1 1 1 1 1 1 1 1 1 1 1 1 1 1 1 1 1 1 1 1 1 1 1 1 1 1 1 1 1 1 1 1 1 1 1 1 1 1 1 1 1 1 1 1 1 1 1 1 1 0.999999 0.999997 0.999992 0.999981 0.999959 0.999914 0.99983 0.999682 0.999436 0.999051 0.998483 0.997689 0.996638 0.995317 0.993735 0.991922 0.989926 0.987803 0.985615 0.983414 0.981245 0.979138 0.977112 0.975174 0.973323 0.971553 0.969852 0.96821 0.966614 0.965055 0.963524 0.962013 0.960518 0.959033 0.957555 0.956081 0.954608 0.953133 0.951653 0.950167 0.948671 0.947162 0.945639 0.944098 0.942537 0.940953 0.939342 0.937702 0.936029 0.93432 0.932571 0.930779 0.928942 0.927055 0.925114 0.92312 0.921075 0.918971 0.916818 0.914624 0.912389 0.910132 0.907875 0.905669 0.905669 
1.08854 1.08847 1.08848 1.08847 1.08845 1.08843 1.08841 1.0884 1.08834 1.08832 1.08826 1.08822 1.08813 1.08809 1.08798 1.08793 1.08779 1.08775 1.08759 1.08753 1.08736 1.08728 1.08711 1.08701 1.08684 1.08671 1.08652 1.08637 1.08616 1.08598 1.08575 1.08552 1.08526 1.08499 1.08468 1.08434 1.08395 1.08352 1.08302 1.08244 1.08175 1.08093 1.07993 1.07872 1.07731 1.07571 1.07398 1.07217 1.07018 1.06772 1.0642 1.05896 1.05158 1.0423 1.03218 1.0226 1.01467 1.00885 1.00498 1.00263 1.00131 1.00062 1.00027 1.00011 1.00005 1.00002 1.00001 1 1 1 1 1 1 1 1 1 1 1 1 1 1 1 1 1 1 1 1 1 1 1 1 1 1 1 1 1 1 1 1 1 1 1 1 1 1 1 1 1 1 1 1 1 1 1 1 1 1 1 1 1 1 1 1 1 1 1 1 1 1 1 1 1 1 1 1 1 1 1 1 1 1 1 1 1 1 1 1 1 1 1 1 1 1 1 1 1 1 1 1 1 1 1 1 1 1 1 1 1 1 1 1 1 1 1 1 1 1 1 1 1 1 1 1 1 1 1 1 1 1 1 1 0.999999 0.999997 0.999993 0.999984 0.999963 0.999923 0.999846 0.99971 0.999481 0.999121 0.998584 0.997827 0.996818 0.99554 0.994 0.992223 0.990256 0.988155 0.985979 0.983784 0.981615 0.979505 0.977472 0.975526 0.973666 0.971886 0.970176 0.968526 0.966923 0.965358 0.963822 0.962308 0.960809 0.959323 0.957844 0.956369 0.954896 0.953422 0.951945 0.950461 0.948969 0.947466 0.945949 0.944416 0.942864 0.941291 0.939694 0.93807 0.936416 0.934729 0.933007 0.931246 0.929444 0.927599 0.925708 0.92377 0.921786 0.919757 0.917681 0.915568 0.913423 0.911255 0.909083 0.906949 0.906949 
1.08839 1.08833 1.08833 1.08832 1.0883 1.08829 1.08826 1.08824 1.08819 1.08817 1.0881 1.08807 1.08798 1.08795 1.08783 1.08779 1.08765 1.08761 1.08745 1.08739 1.08723 1.08715 1.08698 1.08687 1.08669 1.08656 1.08638 1.08622 1.08601 1.08582 1.08559 1.08535 1.08508 1.0848 1.08447 1.08412 1.08372 1.08327 1.08275 1.08214 1.08142 1.08057 1.07954 1.07832 1.07692 1.07538 1.07379 1.07217 1.07045 1.0683 1.06511 1.06013 1.05287 1.04356 1.03325 1.0234 1.01521 1.00917 1.00516 1.00273 1.00135 1.00064 1.00028 1.00012 1.00005 1.00002 1.00001 1 1 1 1 1 1 1 1 1 1 1 1 1 1 1 1 1 1 1 1 1 1 1 1 1 1 1 1 1 1 1 1 1 1 1 1 1 1 1 1 1 1 1 1 1 1 1 1 1 1 1 1 1 1 1 1 1 1 1 1 1 1 1 1 1 1 1 1 1 1 1 1 1 1 1 1 1 1 1 1 1 1 1 1 1 1 1 1 1 1 1 1 1 1 1 1 1 1 1 1 1 1 1 1 1 1 1 1 1 1 1 1 1 1 1 1 1 1 1 1 1 1 1 1 0.999999 0.999998 0.999994 0.999986 0.999968 0.999932 0.999863 0.999739 0.99953 0.999196 0.998694 0.997979 0.997018 0.995791 0.994298 0.992564 0.990631 0.988555 0.986394 0.984206 0.982036 0.979919 0.977877 0.975919 0.974048 0.972256 0.970536 0.968876 0.967265 0.965693 0.964152 0.962633 0.961132 0.959643 0.958163 0.956688 0.955215 0.953742 0.952267 0.950786 0.949298 0.947799 0.946288 0.944763 0.94322 0.941658 0.940074 0.938465 0.936829 0.935163 0.933465 0.931733 0.929964 0.928156 0.926309 0.924421 0.92249 0.920521 0.918513 0.916469 0.914396 0.912302 0.910201 0.908128 0.908128 
1.08825 1.08817 1.08817 1.08817 1.08815 1.08814 1.08811 1.08809 1.08805 1.08802 1.08795 1.08793 1.08783 1.0878 1.08768 1.08765 1.08751 1.08746 1.08731 1.08725 1.08708 1.08701 1.08683 1.08673 1.08655 1.08642 1.08622 1.08606 1.08585 1.08565 1.08541 1.08517 1.08489 1.0846 1.08426 1.0839 1.08348 1.08301 1.08247 1.08184 1.08109 1.0802 1.07915 1.07793 1.07655 1.07509 1.07364 1.07224 1.07079 1.06894 1.06605 1.0613 1.05416 1.04479 1.03428 1.02416 1.0157 1.00946 1.00532 1.00281 1.00139 1.00065 1.00029 1.00012 1.00005 1.00002 1.00001 1 1 1 1 1 1 1 1 1 1 1 1 1 1 1 1 1 1 1 1 1 1 1 1 1 1 1 1 1 1 1 1 1 1 1 1 1 1 1 1 1 1 1 1 1 1 1 1 1 1 1 1 1 1 1 1 1 1 1 1 1 1 1 1 1 1 1 1 1 1 1 1 1 1 1 1 1 1 1 1 1 1 1 1 1 1 1 1 1 1 1 1 1 1 1 1 1 1 1 1 1 1 1 1 1 1 1 1 1 1 1 1 1 1 1 1 1 1 1 1 1 1 1 1 0.999999 0.999998 0.999995 0.999988 0.999972 0.999941 0.99988 0.999769 0.99958 0.999274 0.99881 0.998142 0.997235 0.996064 0.994627 0.992943 0.991051 0.989004 0.986861 0.984679 0.982508 0.980383 0.978329 0.976358 0.974472 0.972667 0.970934 0.969263 0.967642 0.966063 0.964515 0.962992 0.961487 0.959995 0.958513 0.957038 0.955565 0.954093 0.952619 0.951141 0.949656 0.948162 0.946658 0.945139 0.943605 0.942054 0.940482 0.938887 0.937268 0.935622 0.933947 0.932241 0.930502 0.928728 0.926919 0.925073 0.923191 0.921273 0.919321 0.917337 0.915325 0.913292 0.911251 0.90923 0.90923 
1.08809 1.08802 1.08802 1.08801 1.088 1.08799 1.08796 1.08794 1.0879 1.08787 1.0878 1.08778 1.08768 1.08765 1.08754 1.0875 1.08736 1.08732 1.08716 1.0871 1.08694 1.08686 1.08669 1.08658 1.0864 1.08626 1.08607 1.0859 1.08568 1.08548 1.08523 1.08499 1.0847 1.08439 1.08405 1.08367 1.08323 1.08274 1.08218 1.08152 1.08075 1.07983 1.07876 1.07754 1.07621 1.07484 1.07355 1.07237 1.07119 1.06964 1.06703 1.06249 1.05542 1.04598 1.03526 1.02487 1.01617 1.00974 1.00547 1.00288 1.00143 1.00067 1.00029 1.00012 1.00005 1.00002 1.00001 1 1 1 1 1 1 1 1 1 1 1 1 1 1 1 1 1 1 1 1 1 1 1 1 1 1 1 1 1 1 1 1 1 1 1 1 1 1 1 1 1 1 1 1 1 1 1 1 1 1 1 1 1 1 1 1 1 1 1 1 1 1 1 1 1 1 1 1 1 1 1 1 1 1 1 1 1 1 1 1 1 1 1 1 1 1 1 1 1 1 1 1 1 1 1 1 1 1 1 1 1 1 1 1 1 1 1 1 1 1 1 1 1 1 1 1 1 1 1 1 1 1 1 1 0.999999 0.999998 0.999996 0.99999 0.999977 0.99995 0.999896 0.999799 0.99963 0.999354 0.998929 0.998312 0.997463 0.996355 0.994981 0.993355 0.991511 0.989499 0.987378 0.985206 0.983033 0.980899 0.978831 0.976844 0.974941 0.97312 0.971372 0.969687 0.968056 0.966467 0.964913 0.963384 0.961875 0.96038 0.958896 0.957419 0.955946 0.954475 0.953002 0.951527 0.950045 0.948556 0.947057 0.945546 0.94402 0.942478 0.940918 0.939337 0.937734 0.936106 0.934452 0.932769 0.931057 0.929314 0.927539 0.925731 0.923891 0.922018 0.920114 0.91818 0.916221 0.914241 0.912251 0.910275 0.910275 
1.08794 1.08786 1.08787 1.08786 1.08785 1.08783 1.08781 1.08779 1.08774 1.08772 1.08765 1.08762 1.08753 1.0875 1.08739 1.08735 1.08721 1.08717 1.08702 1.08696 1.08679 1.08671 1.08653 1.08643 1.08624 1.0861 1.0859 1.08573 1.08551 1.0853 1.08505 1.08479 1.0845 1.08418 1.08382 1.08343 1.08298 1.08247 1.08188 1.0812 1.08039 1.07946 1.07837 1.07717 1.07589 1.07464 1.07352 1.07257 1.07167 1.0704 1.06804 1.06369 1.05667 1.04714 1.0362 1.02555 1.01659 1.00998 1.0056 1.00294 1.00146 1.00068 1.0003 1.00012 1.00005 1.00002 1.00001 1 1 1 1 1 1 1 1 1 1 1 1 1 1 1 1 1 1 1 1 1 1 1 1 1 1 1 1 1 1 1 1 1 1 1 1 1 1 1 1 1 1 1 1 1 1 1 1 1 1 1 1 1 1 1 1 1 1 1 1 1 1 1 1 1 1 1 1 1 1 1 1 1 1 1 1 1 1 1 1 1 1 1 1 1 1 1 1 1 1 1 1 1 1 1 1 1 1 1 1 1 1 1 1 1 1 1 1 1 1 1 1 1 1 1 1 1 1 1 1 1 1 1 1 1 0.999999 0.999997 0.999992 0.999981 0.999958 0.999912 0.999828 0.999679 0.999433 0.99905 0.998485 0.997699 0.99666 0.995356 0.993795 0.992007 0.990038 0.987945 0.985785 0.983613 0.98147 0.979387 0.977381 0.975458 0.973617 0.971852 0.970153 0.968509 0.966909 0.965346 0.963811 0.962297 0.960799 0.959312 0.957834 0.95636 0.954889 0.953418 0.951944 0.950466 0.948981 0.947487 0.945982 0.944464 0.942932 0.941382 0.939814 0.938226 0.936615 0.93498 0.933319 0.931632 0.929917 0.928172 0.926398 0.924594 0.92276 0.920898 0.919008 0.917094 0.915159 0.913214 0.911277 0.911277 
1.08779 1.08771 1.08771 1.0877 1.08769 1.08768 1.08765 1.08763 1.08759 1.08757 1.0875 1.08747 1.08738 1.08735 1.08723 1.0872 1.08706 1.08702 1.08686 1.0868 1.08663 1.08655 1.08638 1.08627 1.08608 1.08594 1.08573 1.08556 1.08533 1.08512 1.08486 1.08459 1.08429 1.08396 1.08359 1.08318 1.08271 1.08218 1.08157 1.08086 1.08003 1.07907 1.07799 1.07681 1.07561 1.07449 1.07356 1.07286 1.07222 1.07123 1.0691 1.06489 1.0579 1.04825 1.03709 1.02617 1.01699 1.0102 1.00571 1.003 1.00148 1.00069 1.0003 1.00013 1.00005 1.00002 1.00001 1 1 1 1 1 1 1 1 1 1 1 1 1 1 1 1 1 1 1 1 1 1 1 1 1 1 1 1 1 1 1 1 1 1 1 1 1 1 1 1 1 1 1 1 1 1 1 1 1 1 1 1 1 1 1 1 1 1 1 1 1 1 1 1 1 1 1 1 1 1 1 1 1 1 1 1 1 1 1 1 1 1 1 1 1 1 1 1 1 1 1 1 1 1 1 1 1 1 1 1 1 1 1 1 1 1 1 1 1 1 1 1 1 1 1 1 1 1 1 1 1 1 1 1 1 0.999999 0.999997 0.999993 0.999984 0.999965 0.999927 0.999855 0.999726 0.99951 0.999168 0.998658 0.997937 0.996973 0.995746 0.994259 0.992535 0.990617 0.988559 0.986418 0.984249 0.982097 0.979998 0.977971 0.976026 0.974164 0.972379 0.970661 0.969002 0.967391 0.965817 0.964274 0.962754 0.961252 0.959762 0.958282 0.956807 0.955336 0.953865 0.952394 0.950918 0.949437 0.947948 0.946449 0.944939 0.943415 0.941876 0.94032 0.938745 0.93715 0.935533 0.933892 0.932227 0.930537 0.928819 0.927075 0.925304 0.923505 0.921679 0.919828 0.917953 0.916058 0.914151 0.91225 0.91225 
1.08763 1.08755 1.08755 1.08755 1.08754 1.08752 1.0875 1.08748 1.08743 1.08741 1.08734 1.08731 1.08722 1.08719 1.08708 1.08704 1.0869 1.08686 1.0867 1.08664 1.08648 1.08639 1.08621 1.0861 1.08591 1.08577 1.08556 1.08538 1.08515 1.08492 1.08466 1.08438 1.08407 1.08373 1.08334 1.08292 1.08243 1.08188 1.08125 1.08051 1.07966 1.07869 1.07761 1.07648 1.07537 1.07441 1.07369 1.07323 1.07286 1.07211 1.07019 1.06609 1.0591 1.04931 1.03792 1.02674 1.01734 1.0104 1.00581 1.00304 1.0015 1.0007 1.00031 1.00013 1.00005 1.00002 1.00001 1 1 1 1 1 1 1 1 1 1 1 1 1 1 1 1 1 1 1 1 1 1 1 1 1 1 1 1 1 1 1 1 1 1 1 1 1 1 1 1 1 1 1 1 1 1 1 1 1 1 1 1 1 1 1 1 1 1 1 1 1 1 1 1 1 1 1 1 1 1 1 1 1 1 1 1 1 1 1 1 1 1 1 1 1 1 1 1 1 1 1 1 1 1 1 1 1 1 1 1 1 1 1 1 1 1 1 1 1 1 1 1 1 1 1 1 1 1 1 1 1 1 1 1 1 0.999999 0.999998 0.999995 0.999988 0.999972 0.99994 0.99988 0.99977 0.999583 0.999283 0.998827 0.998174 0.997288 0.996144 0.994739 0.99309 0.991232 0.989217 0.987101 0.984941 0.982784 0.980668 0.978619 0.97665 0.974762 0.972954 0.971216 0.96954 0.967914 0.966329 0.964776 0.963249 0.961741 0.960248 0.958765 0.957289 0.955817 0.954347 0.952877 0.951403 0.949925 0.948441 0.946948 0.945445 0.943929 0.9424 0.940855 0.939293 0.937712 0.936111 0.934489 0.932844 0.931176 0.929484 0.927766 0.926024 0.924256 0.922463 0.920645 0.918805 0.916945 0.915073 0.913203 0.913203 
1.08747 1.08739 1.08739 1.08739 1.08738 1.08736 1.08734 1.08732 1.08727 1.08725 1.08718 1.08715 1.08706 1.08703 1.08692 1.08688 1.08674 1.0867 1.08654 1.08648 1.08631 1.08623 1.08604 1.08593 1.08573 1.08559 1.08537 1.08519 1.08495 1.08472 1.08445 1.08416 1.08384 1.08349 1.08309 1.08265 1.08214 1.08157 1.08091 1.08015 1.07927 1.0783 1.07724 1.07618 1.07519 1.0744 1.0739 1.07369 1.07357 1.07305 1.0713 1.06729 1.06026 1.05032 1.03869 1.02726 1.01765 1.01057 1.0059 1.00308 1.00152 1.00071 1.00031 1.00013 1.00005 1.00002 1.00001 1 1 1 1 1 1 1 1 1 1 1 1 1 1 1 1 1 1 1 1 1 1 1 1 1 1 1 1 1 1 1 1 1 1 1 1 1 1 1 1 1 1 1 1 1 1 1 1 1 1 1 1 1 1 1 1 1 1 1 1 1 1 1 1 1 1 1 1 1 1 1 1 1 1 1 1 1 1 1 1 1 1 1 1 1 1 1 1 1 1 1 1 1 1 1 1 1 1 1 1 1 1 1 1 1 1 1 1 1 1 1 1 1 1 1 1 1 1 1 1 1 1 1 1 1 0.999999 0.999998 0.999996 0.99999 0.999978 0.999952 0.999902 0.99981 0.999651 0.99939 0.99899 0.998406 0.9976 0.996545 0.99523 0.993664 0.991878 0.989916 0.987834 0.985688 0.98353 0.9814 0.979329 0.977332 0.975417 0.973582 0.971821 0.970124 0.968481 0.966882 0.965319 0.963783 0.962269 0.960771 0.959284 0.957806 0.956333 0.954863 0.953394 0.951923 0.950448 0.948967 0.94748 0.945982 0.944475 0.942954 0.941419 0.939869 0.938302 0.936716 0.935111 0.933485 0.931837 0.930167 0.928474 0.926757 0.925017 0.923253 0.921466 0.919657 0.917829 0.915987 0.914145 0.914145 
1.08731 1.08722 1.08723 1.08722 1.08721 1.0872 1.08717 1.08716 1.08711 1.08709 1.08702 1.08699 1.0869 1.08687 1.08675 1.08672 1.08658 1.08653 1.08637 1.08631 1.08614 1.08605 1.08587 1.08575 1.08555 1.0854 1.08518 1.08499 1.08475 1.08451 1.08423 1.08394 1.0836 1.08323 1.08282 1.08236 1.08184 1.08124 1.08055 1.07977 1.07888 1.07791 1.0769 1.07592 1.07508 1.07448 1.07421 1.07425 1.07437 1.07405 1.07244 1.06848 1.06138 1.05126 1.0394 1.02773 1.01793 1.01072 1.00597 1.00312 1.00153 1.00071 1.00031 1.00013 1.00005 1.00002 1.00001 1 1 1 1 1 1 1 1 1 1 1 1 1 1 1 1 1 1 1 1 1 1 1 1 1 1 1 1 1 1 1 1 1 1 1 1 1 1 1 1 1 1 1 1 1 1 1 1 1 1 1 1 1 1 1 1 1 1 1 1 1 1 1 1 1 1 1 1 1 1 1 1 1 1 1 1 1 1 1 1 1 1 1 1 1 1 1 1 1 1 1 1 1 1 1 1 1 1 1 1 1 1 1 1 1 1 1 1 1 1 1 1 1 1 1 1 1 1 1 1 1 1 1 1 1 1 0.999999 0.999997 0.999993 0.999983 0.999962 0.999922 0.999846 0.999712 0.99949 0.999143 0.998628 0.997905 0.996943 0.995724 0.994251 0.992546 0.990649 0.988611 0.986489 0.984335 0.982195 0.980102 0.978078 0.976133 0.974269 0.97248 0.97076 0.969096 0.967481 0.965905 0.964359 0.962836 0.961332 0.959842 0.958361 0.956887 0.955416 0.953947 0.952478 0.951005 0.949528 0.948045 0.946554 0.945053 0.943541 0.942016 0.940476 0.938921 0.93735 0.93576 0.934151 0.932522 0.930872 0.929201 0.927508 0.925792 0.924055 0.922295 0.920514 0.918714 0.916901 0.915084 0.915084 
1.08715 1.08706 1.08706 1.08705 1.08704 1.08703 1.08701 1.08699 1.08694 1.08692 1.08685 1.08682 1.08673 1.0867 1.08658 1.08655 1.08641 1.08636 1.0862 1.08614 1.08596 1.08587 1.08569 1.08557 1.08536 1.08521 1.08499 1.08479 1.08454 1.08429 1.084 1.0837 1.08335 1.08297 1.08254 1.08206 1.08151 1.08089 1.08018 1.07938 1.07848 1.07754 1.07659 1.07572 1.07504 1.07466 1.07463 1.0749 1.07524 1.0751 1.07359 1.06963 1.06245 1.05214 1.04004 1.02815 1.01817 1.01084 1.00603 1.00314 1.00154 1.00072 1.00031 1.00013 1.00005 1.00002 1.00001 1 1 1 1 1 1 1 1 1 1 1 1 1 1 1 1 1 1 1 1 1 1 1 1 1 1 1 1 1 1 1 1 1 1 1 1 1 1 1 1 1 1 1 1 1 1 1 1 1 1 1 1 1 1 1 1 1 1 1 1 1 1 1 1 1 1 1 1 1 1 1 1 1 1 1 1 1 1 1 1 1 1 1 1 1 1 1 1 1 1 1 1 1 1 1 1 1 1 1 1 1 1 1 1 1 1 1 1 1 1 1 1 1 1 1 1 1 1 1 1 1 1 1 1 1 1 0.999999 0.999998 0.999995 0.999987 0.999971 0.999939 0.999877 0.999767 0.999581 0.999284 0.998836 0.998197 0.99733 0.996213 0.994842 0.993229 0.991409 0.989428 0.987341 0.9852 0.983055 0.980943 0.978891 0.976914 0.975018 0.973199 0.971451 0.969764 0.968129 0.966537 0.964979 0.963447 0.961935 0.960439 0.958955 0.957478 0.956007 0.954538 0.953069 0.951599 0.950125 0.948646 0.94716 0.945665 0.944161 0.942644 0.941115 0.939572 0.938013 0.936438 0.934844 0.933233 0.931601 0.92995 0.928279 0.926586 0.924872 0.923137 0.921381 0.919607 0.91782 0.916027 0.916027 