# vtk DataFile Version 3.0
LBM simulation at step 190
ASCII
DATASET STRUCTURED_POINTS
DIMENSIONS 128 128 1
ORIGIN 0 0 0
SPACING 1 1 1
POINT_DATA 16384
SCALARS density float
LOOKUP_TABLE default
0.974004 1.04077 1.04247 1.03898 1.03903 1.03898 1.03854 1.03808 1.03762 1.03711 1.03653 1.0359 1.03521 1.03447 1.03368 1.03285 1.03199 1.03111 1.03021 1.02931 1.02841 1.02753 1.02666 1.02582 1.02501 1.02424 1.0235 1.02279 1.02213 1.02149 1.02089 1.02031 1.01976 1.01922 1.01871 1.0182 1.0177 1.0172 1.0167 1.01621 1.01571 1.01521 1.0147 1.01419 1.01366 1.01313 1.01259 1.01204 1.01148 1.01091 1.01034 1.00976 1.00918 1.00859 1.008 1.00741 1.00682 1.00623 1.00565 1.00507 1.0045 1.00393 1.00338 1.00283 1.00229 1.00175 1.00123 1.00072 1.00023 0.999743 0.999272 0.998815 0.998372 0.997945 0.997534 0.997138 0.996758 0.996395 0.996046 0.995713 0.995392 0.995084 0.994785 0.994494 0.994208 0.993924 0.993638 0.993347 0.993049 0.992739 0.992417 0.99208 0.991726 0.991355 0.990965 0.990555 0.990124 0.989666 0.989177 0.988648 0.988068 0.987423 0.986698 0.98588 0.984959 0.983932 0.982806 0.981597 0.980333 0.979049 0.977786 0.976581 0.975464 0.974457 0.973569 0.972798 0.972133 0.971554 0.971038 0.970565 0.970092 0.969584 0.96907 0.968862 0.967148 0.96597 0.983497 0.983497 
1.04342 1.04136 1.03735 1.03851 1.0392 1.03888 1.03844 1.03801 1.03755 1.03704 1.03647 1.03585 1.03517 1.03445 1.03367 1.03286 1.03201 1.03113 1.03024 1.02934 1.02844 1.02756 1.02669 1.02584 1.02503 1.02425 1.02351 1.0228 1.02213 1.02149 1.02088 1.0203 1.01975 1.01921 1.01869 1.01818 1.01767 1.01717 1.01668 1.01618 1.01568 1.01518 1.01467 1.01415 1.01363 1.0131 1.01255 1.012 1.01145 1.01088 1.01031 1.00973 1.00915 1.00856 1.00798 1.00739 1.00681 1.00622 1.00564 1.00507 1.0045 1.00393 1.00338 1.00283 1.00229 1.00176 1.00124 1.00074 1.00024 0.999759 0.999289 0.998833 0.998391 0.997963 0.997551 0.997154 0.996773 0.996407 0.996056 0.995719 0.995395 0.995083 0.99478 0.994484 0.994194 0.993905 0.993614 0.99332 0.993018 0.992706 0.992382 0.992043 0.991687 0.991314 0.990923 0.990511 0.990076 0.989615 0.989122 0.988589 0.988006 0.987361 0.986641 0.985832 0.984927 0.983921 0.982818 0.981633 0.980391 0.979124 0.977869 0.976663 0.975536 0.974511 0.973599 0.9728 0.972104 0.971494 0.970949 0.970448 0.969961 0.96941 0.968697 0.968204 0.969009 0.970255 0.96848 0.96848 
1.05091 1.03804 1.03727 1.0397 1.03912 1.03846 1.03819 1.03787 1.03742 1.03691 1.03636 1.03576 1.03511 1.03441 1.03366 1.03287 1.03205 1.03119 1.03032 1.02943 1.02854 1.02765 1.02678 1.02593 1.02511 1.02432 1.02356 1.02285 1.02216 1.02152 1.0209 1.02031 1.01975 1.01921 1.01868 1.01816 1.01766 1.01715 1.01666 1.01616 1.01565 1.01515 1.01464 1.01412 1.01359 1.01306 1.01252 1.01197 1.01141 1.01085 1.01028 1.0097 1.00912 1.00854 1.00796 1.00738 1.0068 1.00622 1.00564 1.00507 1.00451 1.00395 1.0034 1.00286 1.00232 1.0018 1.00128 1.00078 1.00029 0.999805 0.999336 0.99888 0.998438 0.99801 0.997597 0.997198 0.996813 0.996443 0.996087 0.995744 0.995413 0.995093 0.994782 0.994478 0.994178 0.993881 0.993582 0.99328 0.992972 0.992655 0.992326 0.991983 0.991626 0.991251 0.990858 0.990446 0.99001 0.989549 0.989056 0.988526 0.987947 0.987309 0.986599 0.985805 0.984918 0.983931 0.982848 0.981681 0.980453 0.979193 0.977938 0.976723 0.975582 0.974537 0.973601 0.972777 0.972056 0.971424 0.970855 0.970314 0.969789 0.969319 0.968875 0.968201 0.967829 0.966128 0.959732 0.959732 
1.03518 1.0395 1.04144 1.03889 1.03804 1.03832 1.03811 1.03763 1.03718 1.03672 1.0362 1.03563 1.03501 1.03435 1.03364 1.03289 1.0321 1.03128 1.03043 1.02956 1.02868 1.0278 1.02693 1.02608 1.02525 1.02444 1.02367 1.02294 1.02224 1.02158 1.02095 1.02035 1.01977 1.01922 1.01868 1.01816 1.01765 1.01714 1.01663 1.01613 1.01562 1.01512 1.0146 1.01408 1.01355 1.01302 1.01248 1.01193 1.01137 1.01081 1.01024 1.00967 1.0091 1.00852 1.00795 1.00737 1.0068 1.00623 1.00566 1.0051 1.00454 1.00399 1.00344 1.00291 1.00238 1.00186 1.00135 1.00085 1.00036 0.999877 0.99941 0.998955 0.998513 0.998084 0.997668 0.997265 0.996876 0.9965 0.996137 0.995785 0.995445 0.995114 0.994791 0.994475 0.994163 0.993853 0.993543 0.99323 0.992913 0.992587 0.992252 0.991905 0.991545 0.99117 0.990778 0.990367 0.989935 0.989477 0.988989 0.988463 0.987891 0.987262 0.986563 0.985782 0.984909 0.983939 0.982872 0.981719 0.9805 0.979245 0.977989 0.976766 0.97561 0.974546 0.973589 0.972743 0.971999 0.971343 0.97076 0.970228 0.969698 0.969131 0.968653 0.968188 0.967325 0.965475 0.961493 0.961493 
1.03921 1.03976 1.03871 1.0381 1.03849 1.03815 1.03763 1.03728 1.03693 1.03648 1.03598 1.03545 1.03488 1.03427 1.03361 1.03291 1.03216 1.03138 1.03057 1.02973 1.02888 1.02801 1.02714 1.02628 1.02544 1.02462 1.02384 1.02308 1.02236 1.02168 1.02103 1.02041 1.01982 1.01925 1.0187 1.01817 1.01765 1.01713 1.01662 1.01611 1.0156 1.01508 1.01457 1.01404 1.01351 1.01298 1.01243 1.01189 1.01133 1.01077 1.01021 1.00965 1.00908 1.00851 1.00794 1.00738 1.00681 1.00625 1.00569 1.00514 1.00459 1.00404 1.0035 1.00297 1.00245 1.00194 1.00143 1.00094 1.00045 0.999973 0.999508 0.999053 0.998611 0.99818 0.997761 0.997354 0.996959 0.996575 0.996203 0.99584 0.995487 0.995143 0.994806 0.994474 0.994146 0.993821 0.993496 0.99317 0.99284 0.992505 0.992162 0.991811 0.991449 0.991074 0.990684 0.990276 0.989849 0.989396 0.988914 0.988395 0.987831 0.98721 0.986521 0.985752 0.984893 0.983936 0.982884 0.981743 0.980534 0.979283 0.978025 0.976795 0.975626 0.974544 0.973567 0.9727 0.971939 0.971269 0.970667 0.970118 0.969611 0.969101 0.968549 0.967882 0.966668 0.965649 0.96488 0.96488 
1.03978 1.0385 1.03793 1.03842 1.03809 1.0375 1.03727 1.037 1.0366 1.03617 1.03573 1.03525 1.03473 1.03417 1.03357 1.03292 1.03224 1.03151 1.03074 1.02994 1.02911 1.02826 1.0274 1.02654 1.02569 1.02485 1.02405 1.02327 1.02253 1.02182 1.02114 1.0205 1.01989 1.01931 1.01874 1.01819 1.01766 1.01713 1.01661 1.01609 1.01557 1.01506 1.01453 1.01401 1.01347 1.01294 1.01239 1.01185 1.01129 1.01074 1.01018 1.00962 1.00906 1.0085 1.00795 1.00739 1.00683 1.00628 1.00573 1.00519 1.00465 1.00411 1.00358 1.00306 1.00254 1.00204 1.00154 1.00104 1.00056 1.00009 0.999624 0.99917 0.998726 0.998293 0.99787 0.997457 0.997054 0.996661 0.996277 0.995902 0.995534 0.995174 0.994819 0.99447 0.994124 0.993781 0.993439 0.993097 0.992753 0.992407 0.992056 0.991699 0.991335 0.99096 0.990572 0.990169 0.989747 0.989301 0.988826 0.988315 0.987759 0.987147 0.986469 0.985712 0.984865 0.983923 0.982884 0.981756 0.980556 0.979309 0.978048 0.97681 0.975628 0.97453 0.973535 0.972649 0.97187 0.971189 0.970586 0.970033 0.969513 0.969012 0.968462 0.967864 0.96703 0.966226 0.965888 0.965888 
1.03779 1.03791 1.03801 1.03772 1.03729 1.03715 1.03693 1.03655 1.03619 1.03584 1.03545 1.03501 1.03455 1.03405 1.03351 1.03294 1.03231 1.03164 1.03092 1.03016 1.02936 1.02854 1.02769 1.02683 1.02597 1.02513 1.0243 1.0235 1.02273 1.02199 1.02129 1.02062 1.01999 1.01938 1.0188 1.01823 1.01768 1.01714 1.01661 1.01609 1.01556 1.01503 1.01451 1.01397 1.01344 1.0129 1.01236 1.01181 1.01126 1.01071 1.01016 1.00961 1.00906 1.00851 1.00796 1.00741 1.00687 1.00633 1.00579 1.00525 1.00472 1.0042 1.00367 1.00316 1.00265 1.00215 1.00165 1.00117 1.00069 1.00021 0.999751 0.999297 0.998851 0.998414 0.997986 0.997566 0.997154 0.99675 0.996353 0.995963 0.995578 0.9952 0.994826 0.994456 0.994091 0.993728 0.993367 0.993008 0.99265 0.992292 0.991932 0.991569 0.991202 0.990827 0.990443 0.990044 0.989628 0.989189 0.988721 0.988218 0.987671 0.987069 0.986402 0.985657 0.984825 0.983897 0.982871 0.981755 0.980562 0.979319 0.978056 0.97681 0.975615 0.974501 0.973488 0.972586 0.971793 0.971099 0.97049 0.969946 0.969439 0.968949 0.968413 0.967849 0.96735 0.966759 0.966253 0.966253 
1.03742 1.0373 1.03723 1.03697 1.03685 1.03668 1.03637 1.03608 1.0358 1.03548 1.03512 1.03475 1.03435 1.03392 1.03345 1.03294 1.03238 1.03177 1.03111 1.0304 1.02964 1.02884 1.02801 1.02715 1.02629 1.02543 1.02458 1.02376 1.02296 1.02219 1.02146 1.02077 1.02011 1.01948 1.01887 1.01829 1.01772 1.01717 1.01663 1.01609 1.01556 1.01502 1.01449 1.01395 1.01341 1.01287 1.01233 1.01179 1.01124 1.0107 1.01015 1.00961 1.00907 1.00852 1.00799 1.00745 1.00691 1.00638 1.00585 1.00533 1.00481 1.00429 1.00378 1.00327 1.00276 1.00227 1.00178 1.00129 1.00082 1.00035 0.999882 0.999426 0.998977 0.998535 0.9981 0.997671 0.997248 0.996832 0.99642 0.996013 0.995611 0.995213 0.994818 0.994428 0.994041 0.993657 0.993278 0.992901 0.992528 0.992158 0.991789 0.99142 0.99105 0.990675 0.990293 0.989899 0.989489 0.989057 0.988597 0.988102 0.987564 0.986972 0.986316 0.985584 0.984765 0.983852 0.98284 0.981735 0.98055 0.979309 0.978044 0.97679 0.975583 0.974454 0.973423 0.972505 0.9717 0.970998 0.970386 0.969844 0.969348 0.96888 0.968423 0.967936 0.967497 0.967059 0.966596 0.966596 
1.03689 1.03654 1.03644 1.03637 1.03626 1.03603 1.03581 1.03561 1.03535 1.03507 1.03478 1.03448 1.03414 1.03378 1.03338 1.03293 1.03244 1.0319 1.03129 1.03063 1.02991 1.02915 1.02833 1.02749 1.02663 1.02576 1.02489 1.02404 1.02322 1.02242 1.02166 1.02094 1.02025 1.01959 1.01896 1.01836 1.01778 1.01721 1.01665 1.01611 1.01556 1.01502 1.01448 1.01394 1.0134 1.01286 1.01232 1.01178 1.01123 1.01069 1.01016 1.00962 1.00909 1.00855 1.00802 1.00749 1.00697 1.00645 1.00593 1.00541 1.0049 1.00439 1.00388 1.00338 1.00288 1.00239 1.0019 1.00142 1.00094 1.00047 1.00001 0.999548 0.999094 0.998646 0.998202 0.997763 0.997328 0.996897 0.996469 0.996044 0.995623 0.995204 0.994789 0.994377 0.993969 0.993565 0.993166 0.992773 0.992385 0.992003 0.991626 0.991251 0.990878 0.990503 0.990123 0.989733 0.989328 0.988902 0.988449 0.987962 0.987433 0.986851 0.986206 0.985487 0.984682 0.983783 0.982784 0.981691 0.980514 0.979276 0.978009 0.976747 0.975527 0.974383 0.973336 0.972403 0.971584 0.970875 0.970261 0.969725 0.969244 0.968796 0.968384 0.967982 0.967574 0.967216 0.966874 0.966874 
1.036 1.03576 1.03573 1.03567 1.03554 1.03539 1.03525 1.03507 1.03486 1.03465 1.03443 1.03418 1.03391 1.03361 1.03328 1.03291 1.03248 1.032 1.03146 1.03085 1.03018 1.02945 1.02866 1.02784 1.02698 1.0261 1.02522 1.02435 1.0235 1.02268 1.02189 1.02113 1.02041 1.01973 1.01908 1.01845 1.01785 1.01727 1.0167 1.01614 1.01558 1.01503 1.01449 1.01394 1.0134 1.01286 1.01232 1.01178 1.01124 1.01071 1.01017 1.00964 1.00912 1.00859 1.00807 1.00755 1.00703 1.00652 1.00601 1.0055 1.00499 1.00449 1.00399 1.00349 1.00299 1.0025 1.00202 1.00154 1.00106 1.00059 1.00012 0.999654 0.999194 0.998737 0.998283 0.997831 0.997382 0.996936 0.996491 0.996047 0.995606 0.995167 0.994731 0.994298 0.99387 0.993447 0.993031 0.992622 0.992221 0.991828 0.991442 0.991062 0.990686 0.99031 0.989931 0.989544 0.989142 0.988722 0.988275 0.987795 0.987273 0.986701 0.986067 0.985361 0.984569 0.983684 0.982699 0.981617 0.980447 0.979213 0.977943 0.976674 0.975442 0.974282 0.97322 0.972271 0.97144 0.970723 0.970106 0.969574 0.969108 0.968688 0.968301 0.967947 0.967598 0.967278 0.966997 0.966997 
1.03519 1.03493 1.03493 1.03488 1.03481 1.03473 1.03462 1.03449 1.03435 1.03421 1.03404 1.03386 1.03366 1.03343 1.03316 1.03286 1.0325 1.03208 1.0316 1.03105 1.03042 1.02973 1.02898 1.02818 1.02733 1.02645 1.02557 1.02468 1.0238 1.02295 1.02213 1.02134 1.0206 1.01988 1.01921 1.01856 1.01794 1.01734 1.01675 1.01618 1.01562 1.01506 1.01451 1.01396 1.01341 1.01287 1.01233 1.01179 1.01126 1.01073 1.0102 1.00968 1.00916 1.00864 1.00813 1.00761 1.0071 1.0066 1.00609 1.00558 1.00508 1.00458 1.00408 1.00359 1.0031 1.00261 1.00212 1.00164 1.00116 1.00068 1.00021 0.999734 0.999265 0.998797 0.998331 0.997866 0.997402 0.996939 0.996476 0.996014 0.995553 0.995095 0.994639 0.994187 0.99374 0.9933 0.992868 0.992446 0.992033 0.99163 0.991237 0.990852 0.990472 0.990095 0.989716 0.98933 0.988931 0.988514 0.988071 0.987596 0.987081 0.986517 0.985893 0.985199 0.984421 0.983549 0.982577 0.981506 0.980345 0.979113 0.977841 0.976564 0.97532 0.974146 0.973068 0.972103 0.97126 0.970534 0.969914 0.969384 0.968928 0.968529 0.968167 0.967839 0.967537 0.967253 0.966997 0.966997 
1.03434 1.03407 1.03408 1.03408 1.03406 1.03402 1.03396 1.03389 1.03382 1.03373 1.03363 1.03351 1.03338 1.03321 1.03301 1.03277 1.03248 1.03212 1.0317 1.03121 1.03064 1.02999 1.02927 1.0285 1.02767 1.0268 1.02591 1.02501 1.02411 1.02324 1.02239 1.02157 1.0208 1.02006 1.01935 1.01868 1.01804 1.01742 1.01682 1.01623 1.01566 1.0151 1.01454 1.01399 1.01344 1.0129 1.01236 1.01182 1.01129 1.01077 1.01024 1.00973 1.00921 1.0087 1.00819 1.00768 1.00717 1.00667 1.00617 1.00566 1.00516 1.00466 1.00417 1.00367 1.00318 1.00269 1.0022 1.00171 1.00122 1.00074 1.00026 0.999778 0.999298 0.998818 0.998339 0.997859 0.997379 0.996898 0.996418 0.995938 0.995459 0.994982 0.994508 0.994039 0.993577 0.993122 0.992678 0.992244 0.991821 0.99141 0.991011 0.99062 0.990237 0.989858 0.989477 0.98909 0.988691 0.988274 0.987834 0.987362 0.986852 0.986294 0.985679 0.984995 0.98423 0.983371 0.982412 0.981352 0.980198 0.978969 0.977694 0.97641 0.975155 0.973966 0.972871 0.971892 0.971035 0.970299 0.969674 0.969146 0.968696 0.968309 0.96797 0.967664 0.967388 0.967134 0.9669 0.9669 
1.03344 1.03319 1.03323 1.03326 1.03328 1.03328 1.03328 1.03327 1.03325 1.03323 1.03319 1.03313 1.03306 1.03296 1.03282 1.03264 1.03241 1.03212 1.03176 1.03132 1.0308 1.0302 1.02953 1.02879 1.02798 1.02712 1.02624 1.02533 1.02442 1.02353 1.02265 1.02181 1.021 1.02024 1.01951 1.01881 1.01815 1.01751 1.01689 1.0163 1.01571 1.01514 1.01458 1.01402 1.01347 1.01293 1.01239 1.01186 1.01133 1.01081 1.01029 1.00978 1.00927 1.00876 1.00825 1.00774 1.00724 1.00674 1.00623 1.00573 1.00523 1.00473 1.00423 1.00373 1.00323 1.00274 1.00224 1.00175 1.00125 1.00076 1.00027 0.999778 0.999285 0.998792 0.998298 0.997802 0.997306 0.996809 0.996311 0.995814 0.995318 0.994826 0.994337 0.993854 0.993379 0.992913 0.992458 0.992015 0.991585 0.991168 0.990762 0.990367 0.989979 0.989595 0.989211 0.988821 0.98842 0.988001 0.98756 0.987088 0.986581 0.986028 0.98542 0.984745 0.983991 0.983144 0.982197 0.981147 0.979999 0.978773 0.977496 0.976204 0.974938 0.973734 0.972624 0.971629 0.970758 0.970012 0.96938 0.96885 0.968404 0.968025 0.9677 0.967412 0.967155 0.966923 0.96671 0.96671 
1.03254 1.03231 1.03238 1.03243 1.03249 1.03254 1.03258 1.03263 1.03266 1.03269 1.03271 1.03272 1.0327 1.03266 1.03258 1.03246 1.03229 1.03206 1.03175 1.03137 1.03091 1.03036 1.02973 1.02903 1.02825 1.02742 1.02654 1.02564 1.02472 1.02381 1.02292 1.02205 1.02122 1.02042 1.01967 1.01895 1.01826 1.0176 1.01697 1.01636 1.01577 1.01519 1.01462 1.01406 1.01351 1.01297 1.01244 1.01191 1.01138 1.01086 1.01034 1.00983 1.00932 1.00881 1.0083 1.0078 1.00729 1.00679 1.00628 1.00578 1.00527 1.00477 1.00426 1.00376 1.00325 1.00275 1.00225 1.00174 1.00124 1.00074 1.00023 0.999726 0.99922 0.998712 0.998202 0.997691 0.997179 0.996666 0.996153 0.995641 0.995131 0.994626 0.994125 0.993632 0.993147 0.992673 0.992211 0.991761 0.991325 0.990902 0.990491 0.99009 0.989696 0.989307 0.988916 0.98852 0.988114 0.98769 0.987245 0.986772 0.986264 0.985713 0.98511 0.984442 0.983697 0.982862 0.981925 0.980883 0.979742 0.978518 0.977238 0.975939 0.974661 0.973443 0.972318 0.971307 0.970423 0.969665 0.969026 0.968492 0.968046 0.967672 0.967355 0.96708 0.966838 0.966621 0.966425 0.966425 
1.03165 1.03146 1.03154 1.03162 1.0317 1.03179 1.03188 1.03197 1.03206 1.03214 1.03221 1.03227 1.0323 1.03231 1.03229 1.03222 1.0321 1.03193 1.03168 1.03136 1.03095 1.03046 1.02988 1.02921 1.02847 1.02767 1.02681 1.02592 1.025 1.02408 1.02317 1.02228 1.02143 1.02061 1.01982 1.01908 1.01837 1.01769 1.01705 1.01642 1.01582 1.01524 1.01466 1.0141 1.01355 1.01301 1.01248 1.01195 1.01142 1.0109 1.01039 1.00988 1.00936 1.00885 1.00835 1.00784 1.00733 1.00682 1.00631 1.00579 1.00528 1.00477 1.00426 1.00374 1.00323 1.00272 1.0022 1.00169 1.00117 1.00066 1.00014 0.999619 0.999097 0.998574 0.998049 0.997523 0.996996 0.996469 0.995943 0.995419 0.994899 0.994383 0.993874 0.993374 0.992883 0.992403 0.991936 0.991481 0.99104 0.990612 0.990195 0.989787 0.989386 0.988989 0.98859 0.988185 0.987769 0.987338 0.986886 0.986407 0.985896 0.985345 0.984744 0.984082 0.983344 0.982517 0.981589 0.980556 0.97942 0.978197 0.976914 0.975608 0.974319 0.973087 0.971947 0.970921 0.970023 0.969253 0.968605 0.968066 0.967618 0.967247 0.966934 0.966667 0.966436 0.966231 0.966047 0.966047 
1.0308 1.03065 1.03074 1.03084 1.03095 1.03106 1.03118 1.03131 1.03144 1.03156 1.03167 1.03177 1.03185 1.03191 1.03193 1.03192 1.03185 1.03172 1.03153 1.03126 1.03091 1.03047 1.02994 1.02933 1.02863 1.02786 1.02703 1.02615 1.02524 1.02432 1.0234 1.0225 1.02162 1.02077 1.01997 1.0192 1.01847 1.01777 1.01711 1.01648 1.01586 1.01527 1.0147 1.01413 1.01358 1.01304 1.01251 1.01198 1.01146 1.01094 1.01042 1.0099 1.00939 1.00888 1.00836 1.00785 1.00733 1.00681 1.0063 1.00578 1.00525 1.00473 1.00421 1.00369 1.00316 1.00263 1.00211 1.00158 1.00105 1.00052 0.999987 0.999452 0.998916 0.998378 0.997839 0.9973 0.99676 0.996221 0.995685 0.995152 0.994624 0.994102 0.993588 0.993083 0.992589 0.992106 0.991635 0.991177 0.990731 0.990296 0.989872 0.989457 0.989046 0.988638 0.988228 0.987811 0.987383 0.98694 0.986478 0.98599 0.985473 0.984919 0.984318 0.983658 0.982926 0.982106 0.981185 0.980158 0.979026 0.977804 0.976518 0.975205 0.973906 0.972661 0.971506 0.970466 0.969555 0.968774 0.968116 0.967571 0.96712 0.966747 0.966437 0.966176 0.965951 0.965755 0.96558 0.96558 
1.03001 1.0299 1.03 1.0301 1.03022 1.03036 1.03051 1.03066 1.03081 1.03097 1.03112 1.03125 1.03137 1.03146 1.03152 1.03155 1.03153 1.03145 1.0313 1.03109 1.03079 1.0304 1.02993 1.02936 1.02871 1.02798 1.02718 1.02633 1.02543 1.02452 1.0236 1.02268 1.02179 1.02092 1.02009 1.0193 1.01855 1.01783 1.01716 1.01651 1.01589 1.01529 1.01471 1.01414 1.01359 1.01305 1.01252 1.01199 1.01147 1.01095 1.01043 1.00991 1.00939 1.00887 1.00835 1.00783 1.0073 1.00677 1.00625 1.00572 1.00518 1.00465 1.00411 1.00358 1.00304 1.0025 1.00196 1.00141 1.00087 1.00032 0.999777 0.999228 0.998678 0.998127 0.997575 0.997025 0.996475 0.995928 0.995384 0.994845 0.994313 0.993787 0.993271 0.992764 0.992267 0.991782 0.991309 0.990846 0.990395 0.989954 0.989521 0.989095 0.988672 0.98825 0.987825 0.987393 0.98695 0.986493 0.986017 0.985518 0.984992 0.984431 0.983827 0.983168 0.982438 0.981623 0.980708 0.979685 0.978557 0.977335 0.976047 0.974727 0.973419 0.972163 0.970995 0.969942 0.969018 0.968226 0.96756 0.967007 0.966552 0.966178 0.965868 0.965609 0.965388 0.965197 0.965029 0.965029 
1.02928 1.02922 1.02931 1.02942 1.02955 1.0297 1.02986 1.03003 1.0302 1.03038 1.03055 1.03071 1.03085 1.03097 1.03107 1.03113 1.03114 1.0311 1.031 1.03083 1.03058 1.03025 1.02982 1.02931 1.02871 1.02802 1.02726 1.02644 1.02557 1.02466 1.02374 1.02282 1.02192 1.02103 1.02018 1.01937 1.0186 1.01787 1.01717 1.01651 1.01588 1.01527 1.01469 1.01412 1.01357 1.01303 1.0125 1.01197 1.01144 1.01092 1.0104 1.00988 1.00935 1.00883 1.0083 1.00776 1.00723 1.00669 1.00615 1.00561 1.00506 1.00451 1.00396 1.00341 1.00286 1.00231 1.00175 1.00119 1.00063 1.00007 0.999513 0.998951 0.998388 0.997826 0.997265 0.996705 0.996149 0.995596 0.995048 0.994506 0.993972 0.993445 0.992928 0.99242 0.991922 0.991434 0.990957 0.99049 0.990032 0.989582 0.989138 0.988698 0.98826 0.987822 0.987379 0.986928 0.986467 0.985991 0.985499 0.984986 0.984448 0.983879 0.98327 0.982609 0.98188 0.981067 0.980156 0.979137 0.978011 0.97679 0.975499 0.974174 0.972858 0.971592 0.970414 0.96935 0.968415 0.967614 0.966939 0.96638 0.96592 0.965543 0.965232 0.964973 0.964755 0.964567 0.964404 0.964404 
1.02864 1.02862 1.02871 1.02881 1.02895 1.0291 1.02926 1.02944 1.02962 1.0298 1.02998 1.03015 1.03031 1.03046 1.03057 1.03066 1.0307 1.03069 1.03063 1.0305 1.0303 1.03001 1.02963 1.02917 1.02862 1.02798 1.02726 1.02647 1.02563 1.02474 1.02383 1.02291 1.022 1.0211 1.02023 1.0194 1.01861 1.01786 1.01715 1.01647 1.01583 1.01522 1.01463 1.01407 1.01351 1.01297 1.01244 1.01191 1.01138 1.01086 1.01033 1.0098 1.00927 1.00873 1.00819 1.00765 1.0071 1.00655 1.006 1.00544 1.00488 1.00432 1.00376 1.00319 1.00263 1.00206 1.00149 1.00092 1.00035 0.999774 0.9992 0.998627 0.998055 0.997484 0.996916 0.996351 0.99579 0.995234 0.994685 0.994142 0.993607 0.993081 0.992563 0.992054 0.991554 0.991063 0.990581 0.990106 0.989638 0.989176 0.988718 0.988262 0.987806 0.987347 0.986883 0.986411 0.985928 0.985433 0.984921 0.984392 0.98384 0.983261 0.982645 0.981979 0.98125 0.980439 0.97953 0.978514 0.97739 0.97617 0.974877 0.973549 0.972227 0.970954 0.969767 0.968694 0.967751 0.966942 0.966261 0.965696 0.965231 0.964851 0.964538 0.964278 0.964061 0.963875 0.963713 0.963713 
1.02808 1.02809 1.02817 1.02828 1.0284 1.02855 1.02871 1.02889 1.02907 1.02925 1.02943 1.02961 1.02978 1.02993 1.03005 1.03016 1.03022 1.03024 1.03021 1.03011 1.02994 1.0297 1.02937 1.02895 1.02844 1.02785 1.02717 1.02642 1.02561 1.02475 1.02385 1.02294 1.02202 1.02112 1.02024 1.01939 1.01858 1.01781 1.01708 1.01639 1.01574 1.01512 1.01453 1.01396 1.0134 1.01286 1.01233 1.0118 1.01127 1.01074 1.01021 1.00967 1.00913 1.00859 1.00804 1.00749 1.00693 1.00637 1.0058 1.00523 1.00466 1.00408 1.0035 1.00293 1.00235 1.00177 1.00118 1.0006 1.00002 0.999432 0.998849 0.998267 0.997688 0.997112 0.996539 0.995971 0.995409 0.994853 0.994303 0.993761 0.993227 0.9927 0.992181 0.991669 0.991165 0.990668 0.990177 0.989692 0.989211 0.988734 0.988258 0.987782 0.987304 0.986822 0.986335 0.985839 0.985333 0.984815 0.984283 0.983735 0.983168 0.982577 0.981952 0.981282 0.98055 0.97974 0.978833 0.97782 0.976698 0.975478 0.974186 0.972855 0.97153 0.970253 0.969061 0.967982 0.967033 0.966218 0.965532 0.964963 0.964495 0.964112 0.963797 0.963536 0.963317 0.963132 0.962971 0.962971 
1.0276 1.02764 1.02772 1.02782 1.02794 1.02807 1.02823 1.02839 1.02857 1.02874 1.02892 1.02909 1.02925 1.0294 1.02954 1.02965 1.02972 1.02976 1.02975 1.02968 1.02954 1.02933 1.02903 1.02866 1.02819 1.02765 1.02701 1.0263 1.02553 1.02469 1.02381 1.02291 1.02199 1.02108 1.02019 1.01932 1.0185 1.01771 1.01697 1.01626 1.0156 1.01497 1.01437 1.0138 1.01324 1.0127 1.01216 1.01163 1.0111 1.01057 1.01003 1.00949 1.00895 1.00839 1.00783 1.00727 1.0067 1.00613 1.00555 1.00496 1.00438 1.00379 1.0032 1.00261 1.00202 1.00143 1.00084 1.00024 0.999652 0.99906 0.99847 0.997883 0.9973 0.99672 0.996146 0.995578 0.995015 0.99446 0.993911 0.993369 0.992834 0.992305 0.991783 0.991266 0.990755 0.990248 0.989746 0.989246 0.988748 0.988251 0.987754 0.987255 0.986752 0.986245 0.985731 0.985209 0.984678 0.984137 0.983583 0.983016 0.982434 0.98183 0.981196 0.98052 0.979786 0.978975 0.97807 0.977059 0.97594 0.974722 0.973431 0.972102 0.970776 0.969497 0.968303 0.967222 0.966271 0.965454 0.964765 0.964194 0.963723 0.963338 0.963021 0.962758 0.962538 0.962352 0.96219 0.96219 
1.0272 1.02727 1.02734 1.02743 1.02754 1.02766 1.02781 1.02796 1.02812 1.02828 1.02845 1.02861 1.02876 1.02891 1.02904 1.02915 1.02923 1.02927 1.02927 1.02922 1.0291 1.02892 1.02866 1.02832 1.02789 1.02738 1.02679 1.02612 1.02538 1.02457 1.02372 1.02282 1.02191 1.021 1.0201 1.01922 1.01837 1.01757 1.01681 1.01609 1.01541 1.01477 1.01417 1.01359 1.01303 1.01248 1.01194 1.01141 1.01088 1.01034 1.0098 1.00926 1.00871 1.00815 1.00758 1.007 1.00643 1.00584 1.00525 1.00466 1.00406 1.00347 1.00287 1.00227 1.00167 1.00107 1.00047 0.999866 0.999267 0.99867 0.998076 0.997486 0.996901 0.996321 0.995747 0.995179 0.994617 0.994062 0.993513 0.99297 0.992432 0.991899 0.99137 0.990845 0.990322 0.989802 0.989282 0.988764 0.988245 0.987725 0.987203 0.986678 0.986148 0.985613 0.985072 0.984523 0.983966 0.9834 0.982825 0.982239 0.98164 0.981024 0.980381 0.9797 0.978962 0.978151 0.977247 0.976239 0.975124 0.97391 0.972623 0.971296 0.969973 0.968697 0.967505 0.966426 0.965476 0.964659 0.96397 0.963399 0.962928 0.962541 0.962223 0.961959 0.961737 0.961549 0.961386 0.961386 
1.02689 1.02697 1.02703 1.02711 1.02721 1.02732 1.02745 1.02759 1.02773 1.02788 1.02803 1.02817 1.02831 1.02845 1.02857 1.02867 1.02875 1.0288 1.0288 1.02876 1.02866 1.02849 1.02825 1.02794 1.02755 1.02708 1.02652 1.02589 1.02518 1.0244 1.02357 1.02269 1.02179 1.02088 1.01997 1.01907 1.01821 1.01739 1.01661 1.01587 1.01518 1.01453 1.01392 1.01333 1.01277 1.01222 1.01168 1.01114 1.01061 1.01007 1.00953 1.00898 1.00842 1.00786 1.00728 1.0067 1.00611 1.00552 1.00492 1.00432 1.00372 1.00312 1.00251 1.0019 1.00129 1.00069 1.00008 0.999477 0.998874 0.998275 0.997679 0.997089 0.996503 0.995923 0.99535 0.994782 0.994221 0.993665 0.993113 0.992566 0.992023 0.991481 0.990942 0.990403 0.989865 0.989326 0.988786 0.988244 0.9877 0.987154 0.986604 0.98605 0.985491 0.984927 0.984357 0.983781 0.983198 0.982608 0.982012 0.981408 0.980794 0.980166 0.979515 0.978828 0.978088 0.977277 0.976375 0.975371 0.97426 0.973052 0.97177 0.97045 0.969133 0.967863 0.966677 0.965603 0.964657 0.963845 0.963159 0.96259 0.96212 0.961734 0.961415 0.96115 0.960926 0.960736 0.960571 0.960571 
1.02664 1.02673 1.02678 1.02685 1.02694 1.02704 1.02716 1.02728 1.02741 1.02754 1.02767 1.0278 1.02792 1.02804 1.02815 1.02824 1.02831 1.02835 1.02836 1.02832 1.02822 1.02807 1.02785 1.02756 1.0272 1.02675 1.02623 1.02563 1.02495 1.0242 1.02339 1.02254 1.02164 1.02073 1.01981 1.01891 1.01803 1.01719 1.01639 1.01563 1.01493 1.01426 1.01364 1.01304 1.01247 1.01192 1.01138 1.01084 1.0103 1.00976 1.00922 1.00867 1.0081 1.00753 1.00696 1.00637 1.00578 1.00518 1.00458 1.00397 1.00336 1.00275 1.00214 1.00153 1.00092 1.00031 0.999697 0.99909 0.998486 0.997886 0.997289 0.996699 0.996114 0.995534 0.994961 0.994393 0.993829 0.99327 0.992713 0.992159 0.991605 0.991051 0.990496 0.989939 0.98938 0.988818 0.988253 0.987684 0.987112 0.986536 0.985956 0.985372 0.984783 0.98419 0.983591 0.982988 0.98238 0.981767 0.981151 0.98053 0.979902 0.979264 0.978606 0.977914 0.977173 0.976362 0.975463 0.974463 0.973357 0.972156 0.970883 0.969572 0.968264 0.967004 0.965828 0.964764 0.963827 0.963022 0.962343 0.961778 0.961311 0.960927 0.960609 0.960343 0.960118 0.959926 0.959759 0.959759 
1.02644 1.02654 1.02659 1.02665 1.02673 1.02682 1.02692 1.02703 1.02714 1.02726 1.02737 1.02748 1.02759 1.02769 1.02778 1.02786 1.02792 1.02796 1.02796 1.02792 1.02782 1.02768 1.02747 1.0272 1.02685 1.02643 1.02594 1.02536 1.02472 1.024 1.02321 1.02237 1.02149 1.02058 1.01965 1.01874 1.01784 1.01698 1.01616 1.01539 1.01466 1.01398 1.01334 1.01274 1.01216 1.0116 1.01106 1.01052 1.00998 1.00944 1.00889 1.00834 1.00777 1.0072 1.00662 1.00603 1.00543 1.00483 1.00423 1.00362 1.00301 1.00239 1.00178 1.00116 1.00055 0.999935 0.999325 0.998716 0.998111 0.997512 0.996915 0.996324 0.99574 0.995159 0.994584 0.994013 0.993445 0.992878 0.992312 0.991745 0.991177 0.990605 0.990029 0.98945 0.988865 0.988276 0.987682 0.987083 0.98648 0.985873 0.985262 0.984646 0.984027 0.983404 0.982778 0.982149 0.981517 0.980884 0.980249 0.979613 0.978974 0.978327 0.977662 0.976968 0.976226 0.975416 0.97452 0.973525 0.972427 0.971234 0.969971 0.968672 0.967378 0.966131 0.964969 0.963918 0.962994 0.962199 0.96153 0.960972 0.960511 0.96013 0.959814 0.959549 0.959323 0.959129 0.95896 0.95896 
1.0263 1.0264 1.02644 1.0265 1.02657 1.02665 1.02674 1.02684 1.02693 1.02703 1.02712 1.02722 1.02731 1.0274 1.02748 1.02754 1.02759 1.02762 1.02761 1.02756 1.02747 1.02733 1.02713 1.02687 1.02653 1.02614 1.02566 1.02512 1.02449 1.0238 1.02304 1.02221 1.02134 1.02044 1.01951 1.01859 1.01768 1.01679 1.01595 1.01516 1.01441 1.01371 1.01306 1.01244 1.01185 1.01129 1.01074 1.01019 1.00965 1.00911 1.00856 1.00801 1.00744 1.00687 1.00629 1.0057 1.0051 1.0045 1.00389 1.00328 1.00266 1.00205 1.00143 1.00082 1.0002 0.999584 0.998973 0.998366 0.997758 0.997157 0.996563 0.995969 0.995382 0.9948 0.994219 0.993641 0.993066 0.992487 0.991907 0.991323 0.990734 0.99014 0.98954 0.988932 0.988319 0.987699 0.987073 0.986442 0.985806 0.985166 0.984523 0.983876 0.983228 0.982577 0.981924 0.981271 0.980618 0.979966 0.979315 0.978667 0.978018 0.977364 0.976695 0.975999 0.975256 0.974449 0.973557 0.972567 0.971477 0.970294 0.969044 0.967759 0.966481 0.965252 0.964108 0.963074 0.962165 0.961385 0.960728 0.96018 0.959727 0.959351 0.959038 0.958775 0.958549 0.958354 0.958182 0.958182 
1.0262 1.0263 1.02634 1.02639 1.02645 1.02652 1.0266 1.02668 1.02677 1.02685 1.02693 1.02701 1.02709 1.02716 1.02723 1.02728 1.02732 1.02733 1.02732 1.02727 1.02717 1.02703 1.02683 1.02658 1.02626 1.02588 1.02543 1.0249 1.0243 1.02363 1.02289 1.02209 1.02123 1.02033 1.0194 1.01847 1.01754 1.01664 1.01578 1.01496 1.01419 1.01347 1.0128 1.01217 1.01157 1.01099 1.01044 1.00989 1.00935 1.0088 1.00826 1.0077 1.00714 1.00656 1.00598 1.00539 1.00479 1.00418 1.00358 1.00297 1.00235 1.00173 1.00112 1.00049 0.999879 0.999266 0.998646 0.99804 0.997435 0.996827 0.996231 0.995637 0.995042 0.994453 0.993868 0.993276 0.992688 0.992095 0.991494 0.99089 0.990276 0.989654 0.989024 0.988385 0.987739 0.987085 0.986425 0.98576 0.985091 0.984419 0.983744 0.983068 0.982391 0.981714 0.981037 0.980362 0.97969 0.979022 0.978359 0.9777 0.977043 0.976384 0.975712 0.975015 0.974274 0.973468 0.972581 0.971597 0.970515 0.969344 0.968108 0.96684 0.965581 0.964373 0.96325 0.962237 0.961348 0.960586 0.959943 0.959408 0.958964 0.958596 0.958288 0.958027 0.957802 0.957607 0.957433 0.957433 