# vtk DataFile Version 3.0
LBM simulation at step 100
ASCII
DATASET STRUCTURED_POINTS
DIMENSIONS 128 128 1
ORIGIN 0 0 0
SPACING 1 1 1
POINT_DATA 16384
SCALARS density float
LOOKUP_TABLE default
0.953931 1.01934 1.02109 1.0178 1.01804 1.01824 1.01811 1.01801 1.01797 1.01792 1.01788 1.01785 1.01782 1.01779 1.01777 1.01774 1.01772 1.0177 1.01768 1.01766 1.01765 1.01763 1.01761 1.01759 1.01758 1.01756 1.01755 1.01753 1.01751 1.0175 1.01748 1.01747 1.01745 1.01743 1.01741 1.01739 1.01737 1.01735 1.01732 1.01729 1.01726 1.01721 1.01716 1.01709 1.01701 1.01689 1.01674 1.01653 1.01625 1.01587 1.01536 1.01467 1.01378 1.01265 1.0113 1.00976 1.00811 1.00646 1.00491 1.00356 1.00245 1.00161 1.00099 1.00057 1.00029 1.0001 0.999944 0.999794 0.999616 0.999386 0.999086 0.998706 0.998244 0.997706 0.997106 0.99646 0.995786 0.995101 0.99442 0.993751 0.993101 0.992473 0.991868 0.991284 0.990722 0.990178 0.989651 0.989139 0.98864 0.988152 0.987674 0.987203 0.98674 0.986282 0.985829 0.98538 0.984933 0.984489 0.984046 0.983604 0.983162 0.98272 0.982277 0.981833 0.981386 0.980936 0.980484 0.980027 0.979565 0.979098 0.978624 0.978143 0.977653 0.977153 0.976642 0.976117 0.975577 0.975018 0.974436 0.97383 0.973176 0.972454 0.971708 0.971263 0.969315 0.96792 0.985258 0.985258 
1.02192 1.01997 1.01616 1.01744 1.0183 1.01823 1.01809 1.01802 1.01796 1.01792 1.01788 1.01785 1.01782 1.01779 1.01776 1.01774 1.01772 1.0177 1.01768 1.01766 1.01764 1.01762 1.0176 1.01759 1.01757 1.01755 1.01754 1.01752 1.0175 1.01749 1.01747 1.01745 1.01743 1.01741 1.01739 1.01737 1.01735 1.01732 1.0173 1.01726 1.01722 1.01718 1.01712 1.01705 1.01695 1.01683 1.01666 1.01644 1.01615 1.01576 1.01525 1.01459 1.01373 1.01266 1.01137 1.0099 1.00831 1.00669 1.00515 1.00378 1.00264 1.00176 1.0011 1.00064 1.00033 1.00011 0.999942 0.999776 0.999583 0.999339 0.999026 0.998635 0.998166 0.997626 0.997027 0.996386 0.995721 0.995046 0.994374 0.993715 0.993072 0.992449 0.991848 0.991268 0.990707 0.990164 0.989638 0.989126 0.988627 0.988139 0.98766 0.987189 0.986725 0.986267 0.985813 0.985362 0.984915 0.98447 0.984026 0.983582 0.983139 0.982696 0.982251 0.981805 0.981357 0.980905 0.98045 0.979991 0.979526 0.979056 0.978579 0.978093 0.977599 0.977093 0.976576 0.976043 0.975493 0.974922 0.974327 0.973706 0.973048 0.972292 0.971352 0.970624 0.971199 0.972231 0.970242 0.970242 
1.02932 1.01685 1.01623 1.01876 1.01838 1.01797 1.018 1.01802 1.01797 1.01791 1.01788 1.01784 1.01781 1.01778 1.01776 1.01773 1.01771 1.01769 1.01767 1.01765 1.01763 1.01761 1.01759 1.01758 1.01756 1.01754 1.01752 1.01751 1.01749 1.01747 1.01745 1.01743 1.01742 1.01739 1.01737 1.01735 1.01732 1.0173 1.01726 1.01723 1.01718 1.01713 1.01707 1.01699 1.01688 1.01675 1.01658 1.01636 1.01607 1.01569 1.0152 1.01456 1.01375 1.01273 1.0115 1.01007 1.00851 1.0069 1.00536 1.00396 1.00279 1.00187 1.00118 1.0007 1.00036 1.00013 0.999943 0.999766 0.999563 0.999309 0.998986 0.998587 0.99811 0.997565 0.996964 0.996325 0.995663 0.994994 0.99433 0.993678 0.993042 0.992426 0.99183 0.991254 0.990697 0.990156 0.989631 0.98912 0.988622 0.988134 0.987655 0.987183 0.986719 0.986259 0.985805 0.985353 0.984905 0.984459 0.984014 0.98357 0.983126 0.982681 0.982235 0.981787 0.981337 0.980884 0.980427 0.979966 0.979499 0.979026 0.978546 0.978058 0.977559 0.97705 0.976527 0.975989 0.975432 0.974856 0.974252 0.973602 0.972914 0.972243 0.971575 0.970666 0.970065 0.968142 0.961507 0.961507 
1.01413 1.01849 1.02051 1.01819 1.01755 1.01805 1.01813 1.01799 1.01792 1.0179 1.01787 1.01783 1.0178 1.01778 1.01775 1.01773 1.0177 1.01768 1.01766 1.01764 1.01762 1.0176 1.01758 1.01757 1.01755 1.01753 1.01751 1.01749 1.01747 1.01746 1.01744 1.01742 1.0174 1.01737 1.01735 1.01732 1.0173 1.01726 1.01723 1.01719 1.01714 1.01708 1.01701 1.01693 1.01682 1.01668 1.01651 1.01629 1.016 1.01564 1.01517 1.01456 1.01379 1.01281 1.01162 1.01023 1.00869 1.0071 1.00554 1.00413 1.00293 1.00197 1.00125 1.00074 1.00039 1.00014 0.999945 0.99976 0.99955 0.999288 0.998959 0.998553 0.998072 0.997523 0.99692 0.996281 0.995622 0.994957 0.994298 0.993651 0.993021 0.99241 0.991819 0.991246 0.990692 0.990153 0.98963 0.98912 0.988622 0.988135 0.987656 0.987184 0.986719 0.986259 0.985804 0.985352 0.984903 0.984456 0.984011 0.983565 0.98312 0.982675 0.982228 0.981779 0.981328 0.980873 0.980415 0.979952 0.979484 0.979009 0.978527 0.978036 0.977536 0.977023 0.976498 0.975957 0.975397 0.974813 0.974207 0.973576 0.97289 0.972125 0.971423 0.970724 0.969622 0.96753 0.963279 0.963279 
1.01835 1.01903 1.01814 1.01771 1.01828 1.01818 1.01794 1.01792 1.01793 1.0179 1.01785 1.01782 1.01779 1.01776 1.01774 1.01771 1.01769 1.01767 1.01765 1.01763 1.01761 1.01759 1.01757 1.01755 1.01753 1.01752 1.0175 1.01748 1.01746 1.01744 1.01742 1.0174 1.01738 1.01735 1.01733 1.0173 1.01727 1.01724 1.0172 1.01715 1.0171 1.01704 1.01697 1.01688 1.01677 1.01663 1.01645 1.01623 1.01595 1.01559 1.01514 1.01456 1.01382 1.01288 1.01173 1.01038 1.00887 1.00728 1.00572 1.00429 1.00306 1.00207 1.00132 1.00079 1.00042 1.00016 0.99995 0.999758 0.999541 0.999275 0.998941 0.998531 0.998046 0.997495 0.996892 0.996254 0.995597 0.994936 0.994281 0.993638 0.993013 0.992406 0.991818 0.991248 0.990695 0.990159 0.989637 0.989128 0.98863 0.988142 0.987663 0.987192 0.986727 0.986267 0.985811 0.985358 0.984909 0.984461 0.984015 0.983569 0.983123 0.982677 0.982229 0.981779 0.981327 0.980872 0.980413 0.979949 0.979479 0.979004 0.97852 0.978029 0.977527 0.977014 0.976487 0.975945 0.975386 0.974804 0.974192 0.973553 0.972895 0.97219 0.971412 0.970504 0.969034 0.967745 0.966675 0.966675 
1.01926 1.01818 1.01775 1.01839 1.01825 1.0179 1.01793 1.01797 1.01791 1.01786 1.01783 1.01781 1.01778 1.01775 1.01772 1.0177 1.01768 1.01766 1.01764 1.01762 1.0176 1.01758 1.01756 1.01754 1.01752 1.0175 1.01748 1.01746 1.01744 1.01742 1.0174 1.01738 1.01736 1.01733 1.0173 1.01727 1.01724 1.01721 1.01717 1.01712 1.01707 1.017 1.01693 1.01683 1.01672 1.01657 1.01639 1.01617 1.01589 1.01555 1.01511 1.01456 1.01385 1.01295 1.01185 1.01053 1.00904 1.00746 1.00589 1.00444 1.00318 1.00217 1.00139 1.00084 1.00045 1.00017 0.999957 0.999759 0.999539 0.999269 0.998932 0.99852 0.998034 0.997482 0.996879 0.996241 0.995587 0.994928 0.994276 0.993638 0.993016 0.992412 0.991827 0.991259 0.990708 0.990173 0.989652 0.989143 0.988646 0.988158 0.987679 0.987207 0.986742 0.986281 0.985825 0.985372 0.984922 0.984474 0.984027 0.983581 0.983134 0.982687 0.982239 0.981789 0.981336 0.98088 0.98042 0.979956 0.979486 0.979009 0.978526 0.978034 0.977532 0.977019 0.976494 0.975953 0.975394 0.974816 0.974216 0.973582 0.972914 0.972217 0.971436 0.970584 0.969479 0.968379 0.967714 0.967714 
1.01778 1.01809 1.01829 1.01815 1.0179 1.01798 1.018 1.01791 1.01786 1.01784 1.01782 1.01779 1.01776 1.01774 1.01771 1.01769 1.01767 1.01765 1.01762 1.0176 1.01758 1.01756 1.01754 1.01753 1.01751 1.01749 1.01747 1.01745 1.01743 1.01741 1.01738 1.01736 1.01734 1.01731 1.01728 1.01725 1.01722 1.01718 1.01714 1.01709 1.01703 1.01696 1.01688 1.01679 1.01667 1.01652 1.01634 1.01612 1.01584 1.01551 1.01509 1.01456 1.01389 1.01303 1.01196 1.01068 1.00921 1.00764 1.00606 1.00459 1.0033 1.00226 1.00146 1.00088 1.00047 1.00019 0.999966 0.999764 0.999541 0.99927 0.998933 0.99852 0.998033 0.997481 0.996879 0.996243 0.99559 0.994934 0.994284 0.993649 0.99303 0.992429 0.991846 0.99128 0.990731 0.990197 0.989676 0.989168 0.98867 0.988183 0.987703 0.987231 0.986765 0.986304 0.985847 0.985394 0.984943 0.984495 0.984047 0.9836 0.983153 0.982706 0.982257 0.981806 0.981353 0.980897 0.980437 0.979972 0.979502 0.979026 0.978543 0.978051 0.977551 0.977039 0.976515 0.975977 0.975423 0.974848 0.974254 0.973635 0.972984 0.972295 0.971521 0.97069 0.969901 0.968994 0.968146 0.968146 
1.01795 1.01806 1.01808 1.01794 1.01797 1.018 1.0179 1.01786 1.01785 1.01783 1.01779 1.01777 1.01774 1.01772 1.01769 1.01767 1.01765 1.01763 1.01761 1.01759 1.01757 1.01755 1.01753 1.01751 1.01749 1.01747 1.01745 1.01743 1.01741 1.01739 1.01737 1.01734 1.01732 1.01729 1.01726 1.01723 1.01719 1.01715 1.01711 1.01705 1.01699 1.01692 1.01684 1.01674 1.01662 1.01647 1.01628 1.01606 1.0158 1.01547 1.01507 1.01457 1.01393 1.01311 1.01208 1.01083 1.00938 1.00781 1.00623 1.00473 1.00342 1.00234 1.00152 1.00092 1.0005 1.0002 0.999977 0.999772 0.999548 0.999278 0.998941 0.99853 0.998045 0.997494 0.996893 0.996258 0.995606 0.994952 0.994305 0.993672 0.993055 0.992456 0.991875 0.991311 0.990763 0.990229 0.989709 0.989201 0.988703 0.988216 0.987736 0.987263 0.986797 0.986335 0.985878 0.985424 0.984973 0.984524 0.984076 0.983628 0.983181 0.982733 0.982284 0.981833 0.98138 0.980923 0.980463 0.979998 0.979529 0.979053 0.978571 0.97808 0.977581 0.977072 0.97655 0.976016 0.975467 0.974901 0.974314 0.973705 0.973066 0.972397 0.971695 0.970929 0.970184 0.969417 0.968602 0.968602 
1.01805 1.01795 1.01792 1.01794 1.01796 1.01789 1.01786 1.01786 1.01783 1.01779 1.01777 1.01775 1.01772 1.0177 1.01768 1.01766 1.01763 1.01762 1.01759 1.01758 1.01756 1.01754 1.01752 1.0175 1.01748 1.01746 1.01744 1.01742 1.01739 1.01737 1.01735 1.01732 1.0173 1.01727 1.01724 1.0172 1.01716 1.01712 1.01708 1.01702 1.01696 1.01688 1.0168 1.01669 1.01657 1.01642 1.01623 1.01601 1.01575 1.01544 1.01505 1.01458 1.01397 1.01319 1.0122 1.01097 1.00955 1.00798 1.00638 1.00487 1.00353 1.00243 1.00158 1.00096 1.00052 1.00022 0.999989 0.999783 0.99956 0.999292 0.998959 0.998551 0.998068 0.99752 0.996921 0.996287 0.995637 0.994983 0.994338 0.993706 0.993091 0.992494 0.991914 0.991351 0.990804 0.990271 0.989751 0.989243 0.988745 0.988257 0.987777 0.987304 0.986836 0.986374 0.985917 0.985462 0.985011 0.984561 0.984112 0.983665 0.983217 0.982769 0.982319 0.981868 0.981415 0.980958 0.980498 0.980034 0.979565 0.97909 0.978609 0.97812 0.977622 0.977116 0.976598 0.976068 0.975524 0.974965 0.974389 0.973793 0.973173 0.972522 0.971858 0.971168 0.970443 0.969744 0.969045 0.969045 
1.01787 1.01789 1.0179 1.0179 1.01787 1.01785 1.01785 1.01782 1.01779 1.01777 1.01775 1.01772 1.0177 1.01768 1.01766 1.01764 1.01762 1.0176 1.01758 1.01756 1.01754 1.01752 1.0175 1.01748 1.01746 1.01744 1.01742 1.0174 1.01738 1.01735 1.01733 1.0173 1.01727 1.01724 1.01721 1.01718 1.01714 1.01709 1.01704 1.01699 1.01692 1.01685 1.01676 1.01665 1.01652 1.01637 1.01618 1.01597 1.01571 1.01541 1.01504 1.01459 1.01402 1.01327 1.01231 1.01112 1.00971 1.00815 1.00654 1.005 1.00364 1.00251 1.00163 1.001 1.00055 1.00024 1 0.999796 0.999576 0.999312 0.998984 0.998581 0.998103 0.997559 0.996962 0.99633 0.995681 0.995028 0.994383 0.993752 0.993138 0.992542 0.991963 0.991401 0.990854 0.990321 0.989801 0.989293 0.988795 0.988306 0.987826 0.987352 0.986884 0.986422 0.985964 0.985509 0.985056 0.984606 0.984157 0.983709 0.983261 0.982813 0.982363 0.981912 0.981458 0.981002 0.980543 0.980079 0.979611 0.979137 0.978657 0.97817 0.977675 0.977171 0.976657 0.976132 0.975594 0.975043 0.974476 0.973892 0.973291 0.972669 0.972026 0.971377 0.970703 0.970035 0.96939 0.96939 
1.01783 1.01785 1.01785 1.01784 1.01783 1.01782 1.0178 1.01778 1.01776 1.01774 1.01772 1.0177 1.01768 1.01766 1.01764 1.01762 1.0176 1.01758 1.01756 1.01754 1.01752 1.0175 1.01748 1.01747 1.01744 1.01742 1.0174 1.01738 1.01736 1.01733 1.01731 1.01728 1.01725 1.01722 1.01719 1.01715 1.01711 1.01706 1.01701 1.01695 1.01689 1.01681 1.01671 1.0166 1.01647 1.01632 1.01614 1.01592 1.01567 1.01538 1.01504 1.01462 1.01407 1.01336 1.01243 1.01127 1.00987 1.00831 1.00669 1.00513 1.00374 1.00258 1.00169 1.00103 1.00057 1.00025 1.00002 0.999813 0.999596 0.999338 0.999016 0.99862 0.998149 0.99761 0.997017 0.996388 0.995739 0.995087 0.994442 0.993811 0.993197 0.992601 0.992022 0.991461 0.990914 0.990381 0.989861 0.989352 0.988854 0.988365 0.987883 0.987409 0.986941 0.986478 0.986019 0.985563 0.98511 0.98466 0.98421 0.983762 0.983314 0.982865 0.982415 0.981964 0.981511 0.981055 0.980596 0.980133 0.979665 0.979193 0.978714 0.978229 0.977737 0.977236 0.976726 0.976206 0.975675 0.975132 0.974575 0.974004 0.973417 0.972818 0.9722 0.971572 0.97094 0.970302 0.969677 0.969677 
1.01781 1.0178 1.0178 1.0178 1.01779 1.01778 1.01776 1.01775 1.01773 1.01771 1.01769 1.01768 1.01766 1.01764 1.01762 1.0176 1.01758 1.01756 1.01754 1.01753 1.01751 1.01749 1.01747 1.01745 1.01743 1.01741 1.01739 1.01736 1.01734 1.01731 1.01729 1.01726 1.01723 1.0172 1.01716 1.01713 1.01708 1.01704 1.01698 1.01692 1.01685 1.01677 1.01667 1.01656 1.01643 1.01627 1.01609 1.01588 1.01564 1.01536 1.01504 1.01464 1.01413 1.01345 1.01256 1.01141 1.01003 1.00846 1.00683 1.00525 1.00383 1.00265 1.00173 1.00106 1.0006 1.00027 1.00003 0.999831 0.99962 0.999369 0.999056 0.998668 0.998205 0.997673 0.997085 0.996459 0.995811 0.995159 0.994513 0.993881 0.993267 0.992671 0.992092 0.99153 0.990983 0.99045 0.989929 0.98942 0.988921 0.988431 0.987949 0.987474 0.987006 0.986542 0.986082 0.985626 0.985173 0.984722 0.984272 0.983823 0.983375 0.982926 0.982476 0.982025 0.981572 0.981116 0.980658 0.980196 0.979729 0.979258 0.978781 0.978299 0.977809 0.977312 0.976806 0.976291 0.975766 0.97523 0.974683 0.974124 0.973551 0.972967 0.972373 0.971766 0.971157 0.970545 0.969937 0.969937 
1.01776 1.01776 1.01776 1.01776 1.01775 1.01774 1.01773 1.01772 1.0177 1.01769 1.01767 1.01765 1.01763 1.01762 1.0176 1.01758 1.01756 1.01755 1.01753 1.01751 1.01749 1.01747 1.01745 1.01743 1.01741 1.01739 1.01737 1.01734 1.01732 1.01729 1.01727 1.01724 1.01721 1.01718 1.01714 1.0171 1.01706 1.01701 1.01695 1.01689 1.01681 1.01673 1.01663 1.01652 1.01638 1.01623 1.01605 1.01584 1.01561 1.01535 1.01504 1.01467 1.01419 1.01355 1.01268 1.01156 1.01018 1.00862 1.00697 1.00536 1.00392 1.00272 1.00178 1.00109 1.00062 1.00029 1.00005 0.99985 0.999646 0.999404 0.999101 0.998724 0.998272 0.997748 0.997166 0.996544 0.995898 0.995245 0.994599 0.993965 0.993349 0.992752 0.992173 0.99161 0.991063 0.990529 0.990008 0.989498 0.988998 0.988507 0.988024 0.987549 0.987079 0.986614 0.986154 0.985697 0.985244 0.984792 0.984342 0.983893 0.983444 0.982995 0.982545 0.982095 0.981642 0.981187 0.980729 0.980268 0.979802 0.979333 0.978858 0.978377 0.97789 0.977396 0.976895 0.976385 0.975866 0.975338 0.974799 0.97425 0.973691 0.973121 0.972543 0.971956 0.971364 0.970771 0.97018 0.97018 
1.01772 1.01772 1.01772 1.01772 1.01772 1.01771 1.0177 1.01769 1.01767 1.01766 1.01764 1.01763 1.01761 1.0176 1.01758 1.01756 1.01754 1.01753 1.01751 1.01749 1.01747 1.01745 1.01743 1.01741 1.01739 1.01737 1.01735 1.01732 1.0173 1.01727 1.01725 1.01722 1.01719 1.01715 1.01711 1.01707 1.01703 1.01698 1.01692 1.01685 1.01678 1.01669 1.01659 1.01648 1.01634 1.01619 1.01601 1.01581 1.01559 1.01534 1.01505 1.01471 1.01426 1.01364 1.01281 1.0117 1.01033 1.00876 1.0071 1.00547 1.00401 1.00278 1.00182 1.00112 1.00064 1.0003 1.00007 0.999871 0.999674 0.999442 0.999151 0.998787 0.998347 0.997833 0.99726 0.996642 0.995999 0.995346 0.994698 0.994062 0.993444 0.992845 0.992264 0.991701 0.991152 0.990618 0.990095 0.989585 0.989084 0.988592 0.988108 0.987632 0.987161 0.986696 0.986235 0.985777 0.985323 0.984871 0.98442 0.983971 0.983522 0.983073 0.982623 0.982173 0.98172 0.981266 0.980809 0.980348 0.979885 0.979416 0.978943 0.978465 0.977981 0.977491 0.976993 0.976488 0.975975 0.975453 0.974923 0.974384 0.973835 0.973278 0.972713 0.972141 0.971565 0.970986 0.970409 0.970409 
1.01769 1.01769 1.01769 1.01769 1.01768 1.01768 1.01767 1.01766 1.01765 1.01763 1.01762 1.01761 1.01759 1.01757 1.01756 1.01754 1.01752 1.01751 1.01749 1.01747 1.01745 1.01743 1.01741 1.01739 1.01737 1.01735 1.01733 1.01731 1.01728 1.01725 1.01723 1.0172 1.01716 1.01713 1.01709 1.01705 1.017 1.01695 1.01689 1.01682 1.01674 1.01666 1.01655 1.01644 1.0163 1.01615 1.01597 1.01578 1.01557 1.01533 1.01507 1.01475 1.01433 1.01375 1.01293 1.01184 1.01048 1.00891 1.00723 1.00558 1.00409 1.00284 1.00186 1.00115 1.00065 1.00032 1.00008 0.999892 0.999704 0.999483 0.999205 0.998856 0.99843 0.997929 0.997365 0.996754 0.996114 0.995461 0.994811 0.994173 0.993552 0.992951 0.992368 0.991802 0.991252 0.990716 0.990193 0.989681 0.989179 0.988686 0.988202 0.987724 0.987252 0.986786 0.986324 0.985866 0.985411 0.984959 0.984508 0.984058 0.983609 0.98316 0.98271 0.98226 0.981808 0.981354 0.980898 0.980438 0.979976 0.979509 0.979038 0.978562 0.978081 0.977594 0.9771 0.9766 0.976092 0.975577 0.975054 0.974523 0.973984 0.973438 0.972884 0.972325 0.971761 0.971195 0.970629 0.970629 
1.01766 1.01765 1.01766 1.01765 1.01765 1.01764 1.01764 1.01763 1.01762 1.01761 1.01759 1.01758 1.01757 1.01755 1.01753 1.01752 1.0175 1.01749 1.01747 1.01745 1.01743 1.01741 1.01739 1.01737 1.01735 1.01733 1.01731 1.01728 1.01726 1.01723 1.0172 1.01717 1.01714 1.0171 1.01706 1.01702 1.01697 1.01692 1.01686 1.01679 1.01671 1.01662 1.01652 1.0164 1.01626 1.01611 1.01594 1.01575 1.01555 1.01533 1.01509 1.0148 1.01441 1.01385 1.01306 1.01199 1.01063 1.00905 1.00735 1.00568 1.00416 1.00289 1.0019 1.00117 1.00067 1.00033 1.0001 0.999914 0.999735 0.999526 0.999263 0.99893 0.99852 0.998034 0.997482 0.996879 0.996242 0.995591 0.994939 0.994298 0.993674 0.993069 0.992483 0.991915 0.991363 0.990826 0.990301 0.989788 0.989284 0.98879 0.988304 0.987825 0.987353 0.986886 0.986423 0.985964 0.985508 0.985055 0.984604 0.984154 0.983704 0.983255 0.982806 0.982356 0.981904 0.981451 0.980995 0.980537 0.980076 0.979611 0.979142 0.978668 0.97819 0.977706 0.977216 0.97672 0.976218 0.975708 0.975192 0.974669 0.974138 0.973601 0.973058 0.972509 0.971956 0.9714 0.970844 0.970844 
1.01763 1.01762 1.01763 1.01762 1.01762 1.01762 1.01761 1.0176 1.01759 1.01758 1.01757 1.01756 1.01754 1.01753 1.01751 1.0175 1.01748 1.01747 1.01745 1.01743 1.01741 1.01739 1.01737 1.01736 1.01733 1.01731 1.01729 1.01726 1.01724 1.01721 1.01718 1.01715 1.01712 1.01708 1.01704 1.017 1.01695 1.01689 1.01683 1.01676 1.01668 1.01659 1.01649 1.01637 1.01623 1.01608 1.01591 1.01573 1.01554 1.01534 1.01512 1.01485 1.01449 1.01396 1.01319 1.01213 1.01077 1.00918 1.00746 1.00577 1.00423 1.00294 1.00193 1.00119 1.00069 1.00035 1.00011 0.999936 0.999766 0.99957 0.999323 0.999008 0.998616 0.998147 0.997608 0.997015 0.996385 0.995736 0.995083 0.994438 0.99381 0.9932 0.992611 0.99204 0.991486 0.990946 0.99042 0.989905 0.9894 0.988904 0.988417 0.987937 0.987463 0.986994 0.986531 0.986071 0.985615 0.985161 0.984709 0.984259 0.983809 0.98336 0.982911 0.982461 0.982009 0.981557 0.981102 0.980645 0.980185 0.979722 0.979254 0.978783 0.978307 0.977827 0.97734 0.976849 0.976351 0.975847 0.975337 0.974821 0.974298 0.973769 0.973234 0.972694 0.97215 0.971604 0.971056 0.971056 
1.0176 1.01759 1.0176 1.01759 1.01759 1.01759 1.01758 1.01757 1.01756 1.01755 1.01754 1.01753 1.01752 1.01751 1.01749 1.01748 1.01746 1.01745 1.01743 1.01741 1.01739 1.01737 1.01735 1.01734 1.01731 1.01729 1.01727 1.01724 1.01722 1.01719 1.01716 1.01713 1.0171 1.01706 1.01702 1.01698 1.01693 1.01688 1.01681 1.01674 1.01666 1.01657 1.01646 1.01634 1.01621 1.01606 1.01589 1.01572 1.01554 1.01536 1.01516 1.01492 1.01458 1.01408 1.01333 1.01228 1.01092 1.00931 1.00757 1.00586 1.00429 1.00298 1.00196 1.00121 1.0007 1.00036 1.00013 0.999957 0.999797 0.999615 0.999385 0.999089 0.998716 0.998266 0.997744 0.997164 0.996541 0.995895 0.995241 0.994593 0.99396 0.993346 0.992752 0.992178 0.99162 0.991078 0.990549 0.990032 0.989525 0.989028 0.988539 0.988058 0.987583 0.987113 0.986648 0.986188 0.98573 0.985276 0.984824 0.984373 0.983923 0.983474 0.983024 0.982575 0.982124 0.981672 0.981218 0.980762 0.980303 0.979841 0.979376 0.978907 0.978434 0.977956 0.977473 0.976986 0.976492 0.975994 0.975489 0.974979 0.974463 0.973941 0.973414 0.972882 0.972346 0.971807 0.971266 0.971266 
1.01757 1.01757 1.01757 1.01756 1.01756 1.01756 1.01755 1.01755 1.01754 1.01753 1.01752 1.01751 1.01749 1.01748 1.01747 1.01746 1.01744 1.01742 1.01741 1.01739 1.01737 1.01735 1.01733 1.01732 1.01729 1.01727 1.01725 1.01723 1.0172 1.01717 1.01715 1.01712 1.01709 1.01705 1.01701 1.01697 1.01692 1.01687 1.01681 1.01674 1.01666 1.01656 1.01646 1.01634 1.0162 1.01605 1.01589 1.01572 1.01555 1.01539 1.01521 1.015 1.01469 1.0142 1.01347 1.01242 1.01106 1.00943 1.00768 1.00594 1.00435 1.00302 1.00199 1.00123 1.00071 1.00037 1.00014 0.999977 0.999827 0.999659 0.999447 0.999171 0.99882 0.998391 0.997888 0.997322 0.99671 0.996068 0.995415 0.994765 0.994127 0.993507 0.992908 0.992329 0.991767 0.991222 0.99069 0.990171 0.989662 0.989163 0.988672 0.988189 0.987712 0.987242 0.986776 0.986314 0.985856 0.985401 0.984948 0.984496 0.984046 0.983597 0.983148 0.982698 0.982248 0.981796 0.981343 0.980888 0.980431 0.979971 0.979507 0.97904 0.97857 0.978095 0.977615 0.977131 0.976642 0.976148 0.975648 0.975143 0.974633 0.974118 0.973598 0.973073 0.972544 0.972012 0.971478 0.971478 
1.01754 1.01754 1.01754 1.01754 1.01754 1.01753 1.01753 1.01752 1.01751 1.0175 1.01749 1.01748 1.01747 1.01746 1.01745 1.01743 1.01742 1.0174 1.01739 1.01737 1.01735 1.01733 1.01731 1.0173 1.01727 1.01725 1.01723 1.01721 1.01719 1.01716 1.01714 1.01711 1.01708 1.01705 1.01702 1.01698 1.01694 1.01688 1.01683 1.01676 1.01668 1.01658 1.01648 1.01636 1.01622 1.01607 1.01591 1.01575 1.01559 1.01544 1.01529 1.01509 1.0148 1.01434 1.01361 1.01257 1.01119 1.00955 1.00778 1.00601 1.00441 1.00306 1.00201 1.00125 1.00072 1.00038 1.00016 0.999996 0.999856 0.999703 0.999508 0.999253 0.998925 0.998519 0.998038 0.99749 0.99689 0.996255 0.995604 0.994952 0.994309 0.993684 0.993078 0.992493 0.991927 0.991378 0.990843 0.990321 0.98981 0.989309 0.988816 0.988331 0.987853 0.98738 0.986913 0.98645 0.985991 0.985535 0.985082 0.98463 0.984179 0.98373 0.983281 0.982831 0.982381 0.98193 0.981478 0.981024 0.980568 0.980109 0.979647 0.979183 0.978714 0.978242 0.977766 0.977285 0.9768 0.97631 0.975815 0.975315 0.97481 0.974301 0.973787 0.973268 0.972745 0.972219 0.971691 0.971691 
1.01752 1.01751 1.01751 1.01751 1.01751 1.0175 1.0175 1.01749 1.01749 1.01748 1.01747 1.01746 1.01745 1.01744 1.01742 1.01741 1.01739 1.01738 1.01736 1.01735 1.01733 1.01731 1.0173 1.01728 1.01726 1.01724 1.01722 1.0172 1.01718 1.01716 1.01714 1.01712 1.0171 1.01708 1.01705 1.01702 1.01698 1.01694 1.01688 1.01682 1.01674 1.01665 1.01654 1.01642 1.01628 1.01613 1.01597 1.01582 1.01567 1.01553 1.01539 1.01522 1.01494 1.01449 1.01377 1.01272 1.01133 1.00967 1.00787 1.00608 1.00446 1.00309 1.00203 1.00126 1.00073 1.00039 1.00017 1.00001 0.999884 0.999744 0.999567 0.999334 0.999031 0.99865 0.998193 0.997665 0.99708 0.996456 0.995808 0.995155 0.994508 0.993877 0.993265 0.992673 0.992102 0.991548 0.991009 0.990484 0.98997 0.989466 0.988971 0.988484 0.988004 0.98753 0.987061 0.986597 0.986137 0.98568 0.985226 0.984773 0.984323 0.983873 0.983423 0.982974 0.982525 0.982074 0.981623 0.98117 0.980714 0.980257 0.979797 0.979334 0.978868 0.978398 0.977925 0.977447 0.976966 0.97648 0.975989 0.975494 0.974994 0.97449 0.973981 0.973468 0.972951 0.972431 0.971908 0.971908 
1.01749 1.01748 1.01749 1.01748 1.01748 1.01748 1.01747 1.01747 1.01746 1.01745 1.01744 1.01744 1.01742 1.01741 1.0174 1.01739 1.01737 1.01736 1.01734 1.01733 1.01731 1.01729 1.01728 1.01726 1.01724 1.01723 1.01721 1.0172 1.01719 1.01718 1.01717 1.01716 1.01715 1.01714 1.01713 1.01711 1.01708 1.01705 1.01701 1.01695 1.01687 1.01678 1.01668 1.01655 1.01641 1.01626 1.0161 1.01594 1.0158 1.01567 1.01554 1.01538 1.01511 1.01467 1.01394 1.01288 1.01147 1.00979 1.00796 1.00615 1.0045 1.00312 1.00205 1.00127 1.00074 1.0004 1.00018 1.00003 0.99991 0.999783 0.999624 0.999413 0.999135 0.998781 0.99835 0.997846 0.99728 0.996668 0.996027 0.995374 0.994724 0.994087 0.993468 0.992869 0.992291 0.991731 0.991188 0.990659 0.990142 0.989635 0.989138 0.988648 0.988166 0.98769 0.98722 0.986755 0.986293 0.985835 0.98538 0.984927 0.984476 0.984026 0.983576 0.983127 0.982678 0.982228 0.981777 0.981325 0.980871 0.980415 0.979957 0.979495 0.979031 0.978564 0.978093 0.977619 0.977141 0.976658 0.976172 0.975681 0.975186 0.974686 0.974182 0.973674 0.973162 0.972647 0.972129 0.972129 
1.01747 1.01746 1.01746 1.01746 1.01746 1.01745 1.01745 1.01744 1.01744 1.01743 1.01742 1.01741 1.0174 1.01739 1.01738 1.01737 1.01735 1.01734 1.01732 1.01731 1.01729 1.01728 1.01726 1.01725 1.01724 1.01723 1.01723 1.01722 1.01722 1.01723 1.01724 1.01725 1.01726 1.01727 1.01727 1.01727 1.01727 1.01725 1.01722 1.01717 1.0171 1.01702 1.01691 1.01678 1.01664 1.01648 1.01631 1.01615 1.01601 1.01588 1.01575 1.01559 1.01533 1.01488 1.01414 1.01305 1.01162 1.00991 1.00805 1.00621 1.00455 1.00315 1.00206 1.00128 1.00075 1.0004 1.00019 1.00004 0.999933 0.99982 0.999678 0.999489 0.999237 0.998911 0.998508 0.99803 0.997486 0.99689 0.996259 0.99561 0.994958 0.994315 0.993688 0.993082 0.992496 0.99193 0.991381 0.990848 0.990327 0.989817 0.989317 0.988825 0.98834 0.987863 0.987391 0.986923 0.986461 0.986002 0.985545 0.985092 0.98464 0.984189 0.98374 0.983291 0.982841 0.982392 0.981942 0.98149 0.981037 0.980583 0.980126 0.979667 0.979205 0.97874 0.978271 0.9778 0.977324 0.976845 0.976362 0.975876 0.975384 0.974889 0.97439 0.973887 0.973379 0.972869 0.972355 0.972355 
1.01744 1.01743 1.01744 1.01743 1.01743 1.01743 1.01742 1.01742 1.01741 1.01741 1.0174 1.01739 1.01738 1.01737 1.01735 1.01734 1.01733 1.01732 1.0173 1.01729 1.01728 1.01727 1.01726 1.01725 1.01725 1.01725 1.01726 1.01728 1.0173 1.01733 1.01736 1.0174 1.01744 1.01748 1.01752 1.01754 1.01756 1.01757 1.01755 1.01752 1.01746 1.01738 1.01727 1.01714 1.01699 1.01682 1.01664 1.01648 1.01632 1.01619 1.01606 1.01589 1.01561 1.01513 1.01437 1.01325 1.01179 1.01004 1.00815 1.00628 1.00459 1.00318 1.00208 1.00129 1.00075 1.00041 1.0002 1.00006 0.999954 0.999853 0.999728 0.999561 0.999335 0.999038 0.998665 0.998216 0.997697 0.997121 0.996503 0.99586 0.995208 0.994561 0.993927 0.993313 0.992719 0.992145 0.99159 0.991051 0.990526 0.990012 0.989508 0.989014 0.988527 0.988047 0.987573 0.987104 0.98664 0.986179 0.985722 0.985267 0.984815 0.984364 0.983914 0.983465 0.983016 0.982567 0.982117 0.981666 0.981214 0.980761 0.980305 0.979848 0.979388 0.978925 0.978459 0.97799 0.977518 0.977042 0.976562 0.976079 0.975592 0.975101 0.974605 0.974106 0.973604 0.973097 0.972588 0.972588 
1.01742 1.01741 1.01741 1.01741 1.01741 1.0174 1.0174 1.01739 1.01739 1.01738 1.01737 1.01736 1.01735 1.01734 1.01733 1.01732 1.01731 1.0173 1.01728 1.01728 1.01727 1.01726 1.01726 1.01727 1.01728 1.01731 1.01734 1.01738 1.01744 1.0175 1.01757 1.01765 1.01773 1.01781 1.01789 1.01795 1.018 1.01804 1.01804 1.01803 1.01798 1.0179 1.01779 1.01765 1.01749 1.01731 1.01712 1.01694 1.01677 1.01662 1.01647 1.01628 1.01597 1.01546 1.01465 1.01349 1.01198 1.01018 1.00825 1.00635 1.00463 1.0032 1.0021 1.0013 1.00076 1.00042 1.0002 1.00007 0.999973 0.999883 0.999774 0.999628 0.999427 0.99916 0.998818 0.998401 0.997911 0.997358 0.996757 0.996123 0.995475 0.994825 0.994185 0.993563 0.99296 0.992378 0.991815 0.99127 0.990739 0.990221 0.989714 0.989216 0.988726 0.988244 0.987767 0.987297 0.986831 0.986369 0.98591 0.985454 0.985001 0.98455 0.984099 0.98365 0.983201 0.982752 0.982303 0.981853 0.981402 0.98095 0.980495 0.980039 0.979581 0.97912 0.978657 0.97819 0.977721 0.977248 0.976771 0.976291 0.975808 0.97532 0.974829 0.974334 0.973835 0.973333 0.972828 0.972828 
1.01739 1.01738 1.01738 1.01738 1.01738 1.01738 1.01737 1.01737 1.01736 1.01736 1.01735 1.01734 1.01733 1.01732 1.01731 1.0173 1.01729 1.01728 1.01727 1.01727 1.01727 1.01727 1.01729 1.01732 1.01735 1.01741 1.01748 1.01756 1.01766 1.01777 1.01789 1.01803 1.01816 1.01829 1.01841 1.01852 1.01861 1.01867 1.0187 1.0187 1.01866 1.01859 1.01848 1.01833 1.01816 1.01796 1.01776 1.01756 1.01737 1.01719 1.01701 1.01678 1.01643 1.01587 1.015 1.01378 1.0122 1.01035 1.00837 1.00643 1.00468 1.00323 1.00211 1.00131 1.00077 1.00042 1.00021 1.00008 0.999989 0.999909 0.999815 0.999689 0.999513 0.999275 0.998967 0.998582 0.998124 0.997598 0.997018 0.996399 0.995757 0.995107 0.994463 0.993832 0.99322 0.992629 0.992058 0.991505 0.990968 0.990445 0.989934 0.989432 0.988939 0.988454 0.987975 0.987502 0.987034 0.98657 0.98611 0.985654 0.985199 0.984747 0.984297 0.983847 0.983398 0.982949 0.9825 0.982051 0.981601 0.981149 0.980697 0.980242 0.979785 0.979326 0.978865 0.978401 0.977934 0.977464 0.97699 0.976514 0.976033 0.975549 0.975062 0.974571 0.974076 0.973577 0.973076 0.973076 
1.01737 1.01736 1.01736 1.01736 1.01736 1.01735 1.01735 1.01735 1.01734 1.01733 1.01732 1.01732 1.01731 1.0173 1.01729 1.01728 1.01727 1.01727 1.01726 1.01727 1.01728 1.01731 1.01735 1.0174 1.01748 1.01757 1.01769 1.01783 1.01799 1.01817 1.01836 1.01855 1.01875 1.01893 1.01911 1.01926 1.01938 1.01947 1.01953 1.01954 1.01951 1.01943 1.01932 1.01916 1.01898 1.01877 1.01855 1.01834 1.01812 1.01792 1.0177 1.01741 1.017 1.01637 1.01543 1.01412 1.01247 1.01055 1.00851 1.00652 1.00474 1.00327 1.00213 1.00132 1.00077 1.00042 1.00021 1.00009 1 0.999932 0.999852 0.999744 0.999592 0.999383 0.999107 0.998758 0.998334 0.997839 0.997285 0.996684 0.996053 0.995407 0.99476 0.994122 0.993502 0.9929 0.99232 0.991758 0.991214 0.990685 0.990169 0.989663 0.989166 0.988678 0.988196 0.987721 0.987251 0.986785 0.986324 0.985866 0.98541 0.984957 0.984506 0.984056 0.983607 0.983158 0.98271 0.982261 0.981811 0.981361 0.980909 0.980456 0.980001 0.979544 0.979084 0.978622 0.978158 0.97769 0.97722 0.976746 0.976269 0.975789 0.975304 0.974817 0.974325 0.973831 0.973332 0.973332 