# vtk DataFile Version 3.0
LBM simulation at step 130
ASCII
DATASET STRUCTURED_POINTS
DIMENSIONS 256 256 1
ORIGIN 0 0 0
SPACING 1 1 1
POINT_DATA 65536
SCALARS density float
LOOKUP_TABLE default
0.740718 1.08689 1.13357 1.09138 1.0832 1.09204 1.09383 1.09203 1.09145 1.0916 1.09155 1.09135 1.0912 1.09109 1.09097 1.09086 1.09075 1.09065 1.09055 1.09047 1.09038 1.0903 1.09022 1.09014 1.09007 1.09 1.08993 1.08986 1.08979 1.08973 1.08967 1.0896 1.08954 1.08948 1.08942 1.08936 1.08929 1.08923 1.08917 1.08911 1.08904 1.08898 1.08891 1.08884 1.08877 1.0887 1.08863 1.08855 1.08847 1.08839 1.08831 1.08822 1.08813 1.08803 1.08793 1.08782 1.0877 1.08758 1.08744 1.0873 1.08715 1.087 1.08685 1.0867 1.08654 1.08634 1.08601 1.08542 1.08433 1.08246 1.07946 1.07498 1.06884 1.06106 1.052 1.04229 1.03275 1.02411 1.01689 1.01128 1.00719 1.0044 1.00258 1.00146 1.00079 1.00041 1.00021 1.0001 1.00005 1.00002 1.00001 1 1 1 1 1 1 1 1 1 1 1 1 1 1 1 1 1 1 1 1 1 1 1 1 1 1 1 1 1 1 1 1 1 1 1 1 1 1 1 1 1 1 1 1 1 1 1 1 1 1 1 1 1 1 1 1 1 1 1 1 1 1 1 1 1 1 1 1 1 1 1 1 1 1 0.999999 0.999999 0.999997 0.999994 0.999989 0.999977 0.999957 0.999921 0.99986 0.999761 0.999608 0.999379 0.999051 0.998597 0.997995 0.997223 0.996271 0.995135 0.993823 0.992357 0.990763 0.989079 0.987343 0.985592 0.983862 0.982181 0.980567 0.979033 0.977582 0.976211 0.974914 0.97368 0.972497 0.971356 0.970248 0.969164 0.968099 0.967051 0.966014 0.964989 0.963973 0.962964 0.961963 0.960967 0.959975 0.958987 0.958002 0.957017 0.956033 0.955049 0.954062 0.953074 0.952081 0.951085 0.950082 0.949074 0.948057 0.947032 0.945997 0.944951 0.943892 0.942818 0.941729 0.940622 0.939495 0.938346 0.937172 0.93597 0.934738 0.93347 0.932163 0.930811 0.929408 0.927947 0.926419 0.924812 0.923114 0.921307 0.91937 0.917272 0.914985 0.912457 0.909571 0.906237 0.902554 0.898095 0.890792 0.881459 0.876921 0.854652 0.697092 
1.12995 1.06333 1.0584 1.09352 1.09697 1.0915 1.09064 1.09178 1.0919 1.09154 1.09135 1.09128 1.09117 1.09105 1.09093 1.09083 1.09072 1.09063 1.09052 1.09044 1.09035 1.09027 1.09019 1.09012 1.09004 1.08997 1.0899 1.08984 1.08976 1.0897 1.08963 1.08957 1.08951 1.08945 1.08938 1.08932 1.08926 1.08919 1.08913 1.08906 1.089 1.08893 1.08886 1.08879 1.08872 1.08865 1.08857 1.08849 1.08841 1.08833 1.08824 1.08815 1.08805 1.08795 1.08784 1.08772 1.0876 1.08746 1.08732 1.08717 1.087 1.08684 1.08666 1.08647 1.08626 1.08596 1.08551 1.08475 1.0835 1.08151 1.0785 1.07421 1.06846 1.06125 1.05279 1.04359 1.03433 1.02572 1.01833 1.01245 1.00807 1.00501 1.00298 1.0017 1.00094 1.0005 1.00025 1.00012 1.00006 1.00003 1.00001 1 1 1 1 1 1 1 1 1 1 1 1 1 1 1 1 1 1 1 1 1 1 1 1 1 1 1 1 1 1 1 1 1 1 1 1 1 1 1 1 1 1 1 1 1 1 1 1 1 1 1 1 1 1 1 1 1 1 1 1 1 1 1 1 1 1 1 1 1 1 1 1 1 1 0.999999 0.999999 0.999997 0.999993 0.999986 0.999973 0.999949 0.999908 0.99984 0.999731 0.999563 0.999316 0.998967 0.99849 0.997863 0.997069 0.996099 0.994951 0.993637 0.992175 0.990595 0.98893 0.987218 0.985494 0.983789 0.982131 0.980536 0.979017 0.977576 0.976211 0.974916 0.973681 0.972496 0.971352 0.97024 0.969153 0.968086 0.967035 0.965997 0.964971 0.963953 0.962944 0.961941 0.960944 0.959951 0.958961 0.957974 0.956989 0.956003 0.955017 0.954029 0.953038 0.952044 0.951045 0.950041 0.94903 0.948011 0.946983 0.945945 0.944896 0.943833 0.942756 0.941663 0.940551 0.939419 0.938265 0.937085 0.935877 0.934636 0.93336 0.932044 0.930681 0.929265 0.92779 0.926244 0.924617 0.922895 0.921059 0.919087 0.916949 0.914597 0.911984 0.909076 0.905703 0.90142 0.896377 0.891567 0.883472 0.860264 0.837127 0.837127 
1.13917 1.06745 1.07627 1.09583 1.09279 1.09025 1.09131 1.09191 1.09159 1.09136 1.0913 1.09122 1.0911 1.09099 1.09088 1.09079 1.09068 1.09059 1.09049 1.09041 1.09031 1.09024 1.09015 1.09009 1.09 1.08994 1.08986 1.0898 1.08973 1.08967 1.0896 1.08954 1.08947 1.08941 1.08934 1.08928 1.08921 1.08915 1.08908 1.08902 1.08895 1.08888 1.08881 1.08874 1.08866 1.08859 1.08851 1.08843 1.08834 1.08825 1.08816 1.08806 1.08796 1.08785 1.08774 1.08761 1.08748 1.08733 1.08718 1.08701 1.08683 1.08664 1.08643 1.0862 1.08591 1.08553 1.08498 1.08412 1.08279 1.08078 1.07786 1.0738 1.06843 1.06168 1.0537 1.04486 1.03578 1.02715 1.01959 1.01345 1.0088 1.00551 1.00331 1.00191 1.00106 1.00056 1.00029 1.00014 1.00007 1.00003 1.00001 1.00001 1 1 1 1 1 1 1 1 1 1 1 1 1 1 1 1 1 1 1 1 1 1 1 1 1 1 1 1 1 1 1 1 1 1 1 1 1 1 1 1 1 1 1 1 1 1 1 1 1 1 1 1 1 1 1 1 1 1 1 1 1 1 1 1 1 1 1 1 1 1 1 1 1 0.999999 0.999998 0.999996 0.999992 0.999985 0.99997 0.999944 0.999899 0.999826 0.999709 0.999531 0.99927 0.998904 0.998409 0.997763 0.996951 0.995965 0.994806 0.993486 0.992026 0.990453 0.988802 0.987108 0.985405 0.983722 0.982084 0.980508 0.979003 0.977573 0.976216 0.974924 0.973691 0.972506 0.97136 0.970246 0.969157 0.968089 0.967036 0.965996 0.964968 0.963949 0.962939 0.961935 0.960936 0.959943 0.958952 0.957964 0.956977 0.95599 0.955002 0.954013 0.953021 0.952025 0.951025 0.950019 0.949006 0.947986 0.946956 0.945916 0.944865 0.9438 0.942721 0.941625 0.940511 0.939376 0.938219 0.937036 0.935824 0.93458 0.9333 0.931979 0.930611 0.929191 0.92771 0.926159 0.924526 0.922798 0.920956 0.918978 0.91684 0.9145 0.911884 0.908948 0.905722 0.901892 0.896692 0.891044 0.887141 0.877576 0.861196 0.861196 
1.05595 1.0918 1.10464 1.08703 1.0869 1.09224 1.09239 1.09121 1.09114 1.09134 1.09126 1.09111 1.091 1.09093 1.09082 1.09074 1.09063 1.09055 1.09044 1.09037 1.09027 1.09021 1.09011 1.09006 1.08997 1.08991 1.08983 1.08977 1.08969 1.08964 1.08956 1.0895 1.08943 1.08937 1.0893 1.08924 1.08917 1.08911 1.08904 1.08897 1.0889 1.08883 1.08876 1.08868 1.0886 1.08852 1.08844 1.08836 1.08827 1.08818 1.08808 1.08797 1.08787 1.08775 1.08763 1.0875 1.08735 1.0872 1.08703 1.08685 1.08665 1.08644 1.0862 1.08593 1.08559 1.08515 1.08452 1.0836 1.08223 1.08022 1.07738 1.0735 1.06843 1.06207 1.0545 1.04599 1.03709 1.02847 1.02077 1.0144 1.00952 1.00601 1.00363 1.00211 1.00118 1.00063 1.00033 1.00016 1.00008 1.00004 1.00002 1.00001 1 1 1 1 1 1 1 1 1 1 1 1 1 1 1 1 1 1 1 1 1 1 1 1 1 1 1 1 1 1 1 1 1 1 1 1 1 1 1 1 1 1 1 1 1 1 1 1 1 1 1 1 1 1 1 1 1 1 1 1 1 1 1 1 1 1 1 1 1 1 1 1 1 0.999999 0.999998 0.999996 0.999992 0.999983 0.999968 0.99994 0.999892 0.999814 0.99969 0.999504 0.999232 0.998853 0.998343 0.997683 0.996857 0.995859 0.994693 0.99337 0.991912 0.990347 0.988708 0.987029 0.985343 0.983677 0.982056 0.980494 0.979001 0.97758 0.976229 0.974941 0.973709 0.972525 0.971379 0.970264 0.969174 0.968103 0.967049 0.966009 0.96498 0.96396 0.962948 0.961943 0.960944 0.959949 0.958958 0.957969 0.956981 0.955993 0.955004 0.954014 0.953021 0.952025 0.951023 0.950017 0.949003 0.947981 0.946951 0.94591 0.944858 0.943792 0.942712 0.941615 0.9405 0.939365 0.938207 0.937023 0.935811 0.934567 0.933287 0.931967 0.930601 0.929182 0.927705 0.926159 0.924533 0.922815 0.92099 0.919034 0.91692 0.914629 0.912126 0.909283 0.906019 0.902616 0.898867 0.892894 0.885817 0.882866 0.879276 0.879276 
1.09546 1.09524 1.08768 1.08775 1.09278 1.09183 1.09064 1.09105 1.09137 1.09122 1.09105 1.091 1.09093 1.09085 1.09075 1.09067 1.09057 1.0905 1.09039 1.09033 1.09023 1.09017 1.09007 1.09002 1.08992 1.08987 1.08978 1.08973 1.08965 1.0896 1.08952 1.08946 1.08939 1.08933 1.08925 1.0892 1.08912 1.08906 1.08899 1.08892 1.08885 1.08877 1.0887 1.08862 1.08854 1.08846 1.08837 1.08829 1.08819 1.0881 1.08799 1.08789 1.08777 1.08765 1.08752 1.08738 1.08723 1.08707 1.08689 1.0867 1.08648 1.08625 1.08599 1.08568 1.0853 1.08481 1.08411 1.08312 1.0817 1.07969 1.07692 1.07322 1.06844 1.06245 1.05527 1.04709 1.03837 1.02976 1.02192 1.01534 1.01021 1.00649 1.00395 1.0023 1.00129 1.0007 1.00036 1.00018 1.00009 1.00004 1.00002 1.00001 1 1 1 1 1 1 1 1 1 1 1 1 1 1 1 1 1 1 1 1 1 1 1 1 1 1 1 1 1 1 1 1 1 1 1 1 1 1 1 1 1 1 1 1 1 1 1 1 1 1 1 1 1 1 1 1 1 1 1 1 1 1 1 1 1 1 1 1 1 1 1 1 1 0.999999 0.999998 0.999996 0.999991 0.999982 0.999966 0.999936 0.999886 0.999804 0.999676 0.999482 0.999202 0.998813 0.998292 0.997619 0.996783 0.995777 0.994605 0.993281 0.991827 0.99027 0.988643 0.986978 0.985307 0.983658 0.98205 0.980501 0.979018 0.977604 0.976257 0.974972 0.973741 0.972556 0.971409 0.970293 0.969202 0.96813 0.967075 0.966034 0.965004 0.963983 0.962971 0.961965 0.960965 0.95997 0.958978 0.957988 0.956999 0.956011 0.955022 0.954031 0.953038 0.952041 0.951039 0.950032 0.949018 0.947996 0.946965 0.945924 0.944872 0.943806 0.942727 0.94163 0.940516 0.939382 0.938225 0.937044 0.935834 0.934593 0.933317 0.932002 0.930643 0.929233 0.927766 0.926234 0.924627 0.922932 0.921137 0.919227 0.917175 0.914947 0.912542 0.90995 0.906982 0.903547 0.900274 0.896912 0.89166 0.887208 0.88482 0.88482 
1.09736 1.09051 1.08855 1.09316 1.09167 1.08997 1.09097 1.0914 1.09109 1.09094 1.09096 1.09093 1.09083 1.09076 1.09067 1.09061 1.0905 1.09044 1.09033 1.09028 1.09017 1.09012 1.09002 1.08998 1.08988 1.08983 1.08974 1.08969 1.0896 1.08956 1.08947 1.08942 1.08934 1.08929 1.08921 1.08915 1.08907 1.08901 1.08893 1.08887 1.08879 1.08872 1.08864 1.08856 1.08848 1.0884 1.08831 1.08822 1.08812 1.08802 1.08791 1.0878 1.08768 1.08755 1.08742 1.08727 1.08711 1.08694 1.08675 1.08655 1.08632 1.08607 1.08578 1.08544 1.08502 1.08446 1.08371 1.08266 1.0812 1.07919 1.07651 1.07298 1.06847 1.06284 1.05602 1.04814 1.0396 1.031 1.02304 1.01625 1.01089 1.00696 1.00426 1.00249 1.0014 1.00076 1.00039 1.0002 1.00009 1.00004 1.00002 1.00001 1 1 1 1 1 1 1 1 1 1 1 1 1 1 1 1 1 1 1 1 1 1 1 1 1 1 1 1 1 1 1 1 1 1 1 1 1 1 1 1 1 1 1 1 1 1 1 1 1 1 1 1 1 1 1 1 1 1 1 1 1 1 1 1 1 1 1 1 1 1 1 1 1 0.999999 0.999998 0.999996 0.999991 0.999981 0.999964 0.999934 0.999882 0.999797 0.999665 0.999467 0.99918 0.998783 0.998253 0.997572 0.996728 0.995716 0.994542 0.993218 0.991768 0.99022 0.988604 0.986953 0.985296 0.98366 0.982066 0.980527 0.979053 0.977645 0.976302 0.975019 0.973788 0.972603 0.971454 0.970337 0.969244 0.968171 0.967115 0.966072 0.965041 0.96402 0.963007 0.962001 0.961 0.960004 0.959011 0.958021 0.957032 0.956043 0.955054 0.954063 0.953069 0.952072 0.95107 0.950063 0.949049 0.948028 0.946998 0.945957 0.944906 0.943841 0.942763 0.941669 0.940556 0.939425 0.938271 0.937093 0.935888 0.934653 0.933385 0.932078 0.930729 0.929332 0.927882 0.92637 0.924788 0.923127 0.921373 0.919514 0.91754 0.915422 0.913115 0.910646 0.908071 0.905116 0.901653 0.898568 0.895572 0.892108 0.889437 0.889437 
1.08858 1.09102 1.09249 1.09132 1.09001 1.09109 1.09133 1.09085 1.0908 1.09093 1.09088 1.09079 1.09071 1.09067 1.09059 1.09053 1.09043 1.09038 1.09027 1.09022 1.09012 1.09007 1.08997 1.08993 1.08983 1.08979 1.08969 1.08965 1.08956 1.08951 1.08942 1.08938 1.08929 1.08924 1.08916 1.0891 1.08902 1.08896 1.08888 1.08881 1.08874 1.08866 1.08858 1.0885 1.08842 1.08833 1.08824 1.08814 1.08805 1.08794 1.08783 1.08771 1.08759 1.08746 1.08732 1.08716 1.08699 1.08681 1.08661 1.0864 1.08615 1.08588 1.08556 1.08519 1.08472 1.08411 1.08331 1.08221 1.08072 1.07874 1.07614 1.07279 1.06854 1.06323 1.05675 1.04917 1.0408 1.03222 1.02413 1.01714 1.01156 1.00743 1.00456 1.00268 1.00151 1.00082 1.00043 1.00021 1.0001 1.00005 1.00002 1.00001 1 1 1 1 1 1 1 1 1 1 1 1 1 1 1 1 1 1 1 1 1 1 1 1 1 1 1 1 1 1 1 1 1 1 1 1 1 1 1 1 1 1 1 1 1 1 1 1 1 1 1 1 1 1 1 1 1 1 1 1 1 1 1 1 1 1 1 1 1 1 1 1 1 0.999999 0.999998 0.999995 0.99999 0.999981 0.999963 0.999932 0.999879 0.999793 0.999658 0.999456 0.999166 0.998763 0.998228 0.997542 0.996693 0.995678 0.994502 0.993181 0.991736 0.990196 0.98859 0.986951 0.985308 0.983684 0.982101 0.980572 0.979105 0.977703 0.976363 0.975081 0.97385 0.972664 0.971514 0.970395 0.9693 0.968226 0.967168 0.966124 0.965092 0.96407 0.963056 0.962049 0.961048 0.960052 0.959058 0.958068 0.957078 0.956089 0.9551 0.954109 0.953115 0.952118 0.951117 0.95011 0.949097 0.948076 0.947047 0.946008 0.944957 0.943895 0.942818 0.941726 0.940617 0.939489 0.93834 0.937168 0.935969 0.934742 0.933482 0.932186 0.930851 0.92947 0.928039 0.926552 0.925 0.923377 0.921673 0.919873 0.917968 0.915958 0.913815 0.911481 0.909025 0.906548 0.903759 0.900747 0.898025 0.895285 0.892816 0.892816 
1.09095 1.09121 1.09113 1.09045 1.09103 1.09121 1.09069 1.09072 1.09087 1.0908 1.0907 1.09068 1.09063 1.09058 1.09049 1.09044 1.09035 1.09031 1.0902 1.09016 1.09006 1.09002 1.08991 1.08988 1.08977 1.08974 1.08964 1.0896 1.08951 1.08947 1.08937 1.08933 1.08924 1.08919 1.08911 1.08905 1.08897 1.08891 1.08883 1.08876 1.08868 1.0886 1.08852 1.08844 1.08835 1.08826 1.08817 1.08807 1.08797 1.08786 1.08775 1.08763 1.0875 1.08736 1.08721 1.08705 1.08687 1.08668 1.08647 1.08624 1.08598 1.08569 1.08534 1.08493 1.08443 1.08377 1.08292 1.08178 1.08028 1.07832 1.07581 1.07264 1.06864 1.06364 1.05748 1.05017 1.04196 1.0334 1.0252 1.01801 1.01221 1.00788 1.00485 1.00286 1.00162 1.00088 1.00046 1.00023 1.00011 1.00005 1.00002 1.00001 1 1 1 1 1 1 1 1 1 1 1 1 1 1 1 1 1 1 1 1 1 1 1 1 1 1 1 1 1 1 1 1 1 1 1 1 1 1 1 1 1 1 1 1 1 1 1 1 1 1 1 1 1 1 1 1 1 1 1 1 1 1 1 1 1 1 1 1 1 1 1 1 1 0.999999 0.999998 0.999995 0.99999 0.999981 0.999963 0.999931 0.999878 0.999791 0.999655 0.999451 0.999159 0.998754 0.998216 0.997527 0.996676 0.99566 0.994486 0.993168 0.991729 0.990197 0.988602 0.986974 0.985342 0.98373 0.982156 0.980636 0.979175 0.977777 0.976439 0.975158 0.973927 0.972739 0.971588 0.970467 0.96937 0.968294 0.967235 0.96619 0.965157 0.964134 0.963119 0.962112 0.96111 0.960113 0.959119 0.958128 0.957138 0.956149 0.95516 0.954168 0.953175 0.952178 0.951177 0.950171 0.949159 0.948139 0.947111 0.946073 0.945025 0.943965 0.942891 0.941802 0.940697 0.939574 0.93843 0.937263 0.936072 0.934853 0.933604 0.932321 0.931 0.929638 0.928229 0.926768 0.925249 0.923666 0.92201 0.920277 0.918449 0.91652 0.914505 0.912378 0.910076 0.907701 0.905332 0.902799 0.900258 0.897859 0.895639 0.895639 
1.09152 1.09081 1.09061 1.09088 1.09103 1.09065 1.09067 1.09081 1.0907 1.09062 1.09061 1.09059 1.09052 1.09048 1.0904 1.09036 1.09027 1.09023 1.09013 1.0901 1.08999 1.08996 1.08986 1.08982 1.08972 1.08969 1.08959 1.08955 1.08945 1.08942 1.08932 1.08928 1.08919 1.08914 1.08906 1.089 1.08892 1.08886 1.08877 1.0887 1.08862 1.08855 1.08846 1.08838 1.08829 1.0882 1.0881 1.088 1.08789 1.08778 1.08766 1.08754 1.0874 1.08726 1.0871 1.08693 1.08675 1.08655 1.08633 1.08608 1.0858 1.08549 1.08512 1.08468 1.08413 1.08344 1.08254 1.08137 1.07986 1.07794 1.07553 1.07252 1.06876 1.06405 1.05821 1.05116 1.0431 1.03456 1.02625 1.01886 1.01285 1.00832 1.00513 1.00303 1.00172 1.00093 1.00049 1.00024 1.00012 1.00005 1.00002 1.00001 1 1 1 1 1 1 1 1 1 1 1 1 1 1 1 1 1 1 1 1 1 1 1 1 1 1 1 1 1 1 1 1 1 1 1 1 1 1 1 1 1 1 1 1 1 1 1 1 1 1 1 1 1 1 1 1 1 1 1 1 1 1 1 1 1 1 1 1 1 1 1 1 1 0.999999 0.999998 0.999995 0.99999 0.999981 0.999963 0.999932 0.999878 0.999791 0.999655 0.999452 0.999159 0.998754 0.998216 0.997528 0.996678 0.995664 0.994493 0.99318 0.991748 0.990224 0.988638 0.98702 0.985398 0.983796 0.982231 0.980717 0.979261 0.977866 0.976531 0.97525 0.974018 0.972829 0.971676 0.970553 0.969455 0.968377 0.967316 0.96627 0.965236 0.964211 0.963196 0.962187 0.961185 0.960187 0.959193 0.958201 0.957212 0.956222 0.955233 0.954242 0.953249 0.952252 0.951252 0.950246 0.949235 0.948217 0.94719 0.946154 0.945108 0.94405 0.94298 0.941895 0.940794 0.939675 0.938537 0.937378 0.936195 0.934985 0.933748 0.932478 0.931173 0.92983 0.928444 0.92701 0.925525 0.923982 0.922375 0.920699 0.918952 0.917117 0.915191 0.913201 0.911124 0.908925 0.906701 0.904468 0.902188 0.89998 0.897942 0.897942 
1.09059 1.09073 1.09079 1.09079 1.09063 1.09062 1.09072 1.09062 1.09054 1.09056 1.09052 1.09047 1.09042 1.09039 1.09032 1.09028 1.09019 1.09016 1.09006 1.09003 1.08993 1.0899 1.08979 1.08977 1.08966 1.08963 1.08953 1.0895 1.0894 1.08936 1.08927 1.08923 1.08914 1.08909 1.089 1.08895 1.08886 1.0888 1.08872 1.08865 1.08856 1.08848 1.0884 1.08831 1.08822 1.08813 1.08803 1.08792 1.08781 1.0877 1.08757 1.08744 1.0873 1.08715 1.08699 1.08681 1.08662 1.08641 1.08618 1.08592 1.08562 1.08529 1.08489 1.08442 1.08384 1.08311 1.08218 1.08099 1.07948 1.0776 1.07528 1.07243 1.0689 1.06448 1.05893 1.05212 1.04422 1.03568 1.02727 1.01969 1.01347 1.00874 1.00541 1.0032 1.00181 1.00099 1.00052 1.00026 1.00013 1.00006 1.00003 1.00001 1 1 1 1 1 1 1 1 1 1 1 1 1 1 1 1 1 1 1 1 1 1 1 1 1 1 1 1 1 1 1 1 1 1 1 1 1 1 1 1 1 1 1 1 1 1 1 1 1 1 1 1 1 1 1 1 1 1 1 1 1 1 1 1 1 1 1 1 1 1 1 1 1 0.999999 0.999998 0.999996 0.999991 0.999981 0.999964 0.999933 0.99988 0.999794 0.999659 0.999457 0.999166 0.998764 0.998228 0.997543 0.996697 0.995688 0.994523 0.993217 0.991792 0.990276 0.988699 0.98709 0.985477 0.983883 0.982326 0.980817 0.979365 0.977973 0.976638 0.975357 0.974124 0.972933 0.971778 0.970653 0.969553 0.968473 0.967411 0.966363 0.965328 0.964302 0.963286 0.962276 0.961273 0.960275 0.95928 0.958288 0.957298 0.956309 0.955319 0.954328 0.953335 0.95234 0.95134 0.950335 0.949325 0.948308 0.947283 0.94625 0.945206 0.944151 0.943084 0.942003 0.940906 0.939793 0.938661 0.937509 0.936335 0.935136 0.93391 0.932654 0.931366 0.930042 0.928679 0.927273 0.92582 0.924317 0.922758 0.921137 0.919455 0.917709 0.915887 0.913991 0.912049 0.910044 0.907976 0.905907 0.903841 0.901803 0.899894 0.899894 
1.0906 1.09065 1.09063 1.09058 1.09055 1.0906 1.09054 1.09048 1.09048 1.09046 1.0904 1.09037 1.09033 1.09029 1.09022 1.09019 1.09011 1.09008 1.08999 1.08996 1.08986 1.08983 1.08973 1.08971 1.0896 1.08958 1.08947 1.08944 1.08935 1.08931 1.08922 1.08917 1.08908 1.08903 1.08895 1.08889 1.08881 1.08874 1.08866 1.08859 1.0885 1.08842 1.08833 1.08825 1.08815 1.08805 1.08795 1.08784 1.08773 1.08761 1.08748 1.08735 1.0872 1.08705 1.08688 1.08669 1.08649 1.08627 1.08603 1.08575 1.08544 1.08509 1.08467 1.08417 1.08355 1.08279 1.08183 1.08062 1.07912 1.07729 1.07507 1.07238 1.06908 1.06492 1.05964 1.05308 1.04531 1.03679 1.02826 1.02051 1.01407 1.00916 1.00568 1.00336 1.00191 1.00104 1.00054 1.00027 1.00013 1.00006 1.00003 1.00001 1 1 1 1 1 1 1 1 1 1 1 1 1 1 1 1 1 1 1 1 1 1 1 1 1 1 1 1 1 1 1 1 1 1 1 1 1 1 1 1 1 1 1 1 1 1 1 1 1 1 1 1 1 1 1 1 1 1 1 1 1 1 1 1 1 1 1 1 1 1 1 1 1 0.999999 0.999998 0.999996 0.999991 0.999982 0.999965 0.999934 0.999883 0.999798 0.999666 0.999467 0.99918 0.998782 0.998252 0.997573 0.996734 0.995733 0.994575 0.993277 0.99186 0.990353 0.988785 0.987185 0.985579 0.983992 0.98244 0.980936 0.979487 0.978096 0.976761 0.975479 0.974245 0.973052 0.971895 0.970768 0.969665 0.968584 0.96752 0.96647 0.965433 0.964407 0.963389 0.962379 0.961375 0.960376 0.959381 0.958388 0.957398 0.956408 0.955419 0.954428 0.953436 0.952441 0.951442 0.950438 0.949429 0.948414 0.947391 0.946359 0.945318 0.944266 0.943202 0.942125 0.941034 0.939926 0.938801 0.937657 0.936491 0.935302 0.934088 0.932847 0.931575 0.930271 0.92893 0.927551 0.92613 0.924664 0.92315 0.921584 0.919962 0.918286 0.916557 0.914766 0.912923 0.911048 0.909132 0.907195 0.905269 0.903369 0.901568 0.901568 
1.09059 1.0905 1.09048 1.09049 1.09049 1.09046 1.09041 1.09041 1.09039 1.09034 1.09031 1.09028 1.09023 1.0902 1.09014 1.09011 1.09003 1.09 1.08991 1.08989 1.08979 1.08977 1.08967 1.08964 1.08954 1.08952 1.08942 1.08939 1.08929 1.08925 1.08916 1.08912 1.08903 1.08898 1.08889 1.08883 1.08875 1.08868 1.0886 1.08852 1.08844 1.08836 1.08827 1.08818 1.08808 1.08798 1.08787 1.08776 1.08765 1.08752 1.08739 1.08725 1.0871 1.08694 1.08676 1.08657 1.08636 1.08613 1.08587 1.08559 1.08526 1.08488 1.08444 1.08391 1.08327 1.08247 1.08149 1.08027 1.07878 1.077 1.07489 1.07236 1.06927 1.06537 1.06036 1.05402 1.04638 1.03787 1.02924 1.0213 1.01466 1.00956 1.00593 1.00352 1.002 1.00109 1.00057 1.00029 1.00014 1.00006 1.00003 1.00001 1.00001 1 1 1 1 1 1 1 1 1 1 1 1 1 1 1 1 1 1 1 1 1 1 1 1 1 1 1 1 1 1 1 1 1 1 1 1 1 1 1 1 1 1 1 1 1 1 1 1 1 1 1 1 1 1 1 1 1 1 1 1 1 1 1 1 1 1 1 1 1 1 1 1 0.999999 0.999998 0.999996 0.999991 0.999983 0.999966 0.999937 0.999887 0.999805 0.999676 0.999481 0.9992 0.998809 0.998287 0.997617 0.996788 0.995796 0.994649 0.99336 0.991953 0.990455 0.988895 0.987303 0.985705 0.984123 0.982575 0.981074 0.979627 0.978236 0.9769 0.975617 0.974381 0.973186 0.972026 0.970896 0.969792 0.968708 0.967642 0.966591 0.965552 0.964525 0.963506 0.962495 0.96149 0.96049 0.959494 0.958502 0.957511 0.956521 0.955532 0.954541 0.953549 0.952555 0.951557 0.950554 0.949547 0.948533 0.947512 0.946482 0.945444 0.944395 0.943335 0.942263 0.941176 0.940074 0.938956 0.937819 0.936663 0.935484 0.934282 0.933055 0.9318 0.930514 0.929196 0.927843 0.926453 0.925022 0.923548 0.922031 0.920467 0.918854 0.917197 0.915497 0.913751 0.911972 0.910171 0.908352 0.906536 0.904744 0.903028 0.903028 
1.09041 1.09039 1.09039 1.09038 1.09037 1.09034 1.09033 1.09031 1.09027 1.09025 1.09022 1.09019 1.09014 1.09011 1.09005 1.09002 1.08995 1.08992 1.08984 1.08982 1.08972 1.0897 1.0896 1.08958 1.08948 1.08946 1.08936 1.08933 1.08923 1.0892 1.0891 1.08906 1.08897 1.08892 1.08883 1.08877 1.08869 1.08862 1.08853 1.08846 1.08837 1.08829 1.0882 1.0881 1.08801 1.0879 1.0878 1.08768 1.08756 1.08743 1.0873 1.08715 1.087 1.08683 1.08665 1.08645 1.08623 1.08599 1.08572 1.08542 1.08507 1.08468 1.08421 1.08366 1.08299 1.08217 1.08116 1.07994 1.07847 1.07675 1.07474 1.07237 1.06949 1.06583 1.06107 1.05495 1.04743 1.03893 1.03019 1.02207 1.01523 1.00995 1.00618 1.00366 1.00208 1.00113 1.00059 1.0003 1.00014 1.00007 1.00003 1.00001 1.00001 1 1 1 1 1 1 1 1 1 1 1 1 1 1 1 1 1 1 1 1 1 1 1 1 1 1 1 1 1 1 1 1 1 1 1 1 1 1 1 1 1 1 1 1 1 1 1 1 1 1 1 1 1 1 1 1 1 1 1 1 1 1 1 1 1 1 1 1 1 1 1 1 0.999999 0.999998 0.999996 0.999992 0.999984 0.999968 0.99994 0.999892 0.999813 0.999688 0.999499 0.999225 0.998843 0.998332 0.997674 0.996857 0.995878 0.994743 0.993467 0.992071 0.990582 0.989031 0.987446 0.985853 0.984276 0.982731 0.981232 0.979785 0.978394 0.977057 0.975771 0.974532 0.973335 0.972172 0.97104 0.969933 0.968847 0.967779 0.966726 0.965685 0.964656 0.963636 0.962624 0.961618 0.960618 0.959621 0.958628 0.957637 0.956647 0.955658 0.954668 0.953676 0.952682 0.951685 0.950684 0.949677 0.948665 0.947646 0.946619 0.945584 0.944539 0.943482 0.942414 0.941333 0.940237 0.939125 0.937996 0.936849 0.935681 0.934491 0.933277 0.932038 0.930771 0.929475 0.928146 0.926784 0.925387 0.923952 0.922477 0.920964 0.919411 0.917817 0.916188 0.914526 0.912832 0.91112 0.909396 0.907671 0.905964 0.904319 0.904319 
1.0903 1.09028 1.09028 1.09027 1.09026 1.09025 1.09023 1.09021 1.09018 1.09016 1.09012 1.0901 1.09005 1.09003 1.08997 1.08994 1.08987 1.08985 1.08976 1.08974 1.08965 1.08963 1.08953 1.08952 1.08942 1.08939 1.08929 1.08927 1.08917 1.08914 1.08904 1.089 1.08891 1.08886 1.08877 1.08871 1.08862 1.08856 1.08847 1.08839 1.0883 1.08822 1.08813 1.08803 1.08793 1.08783 1.08771 1.0876 1.08747 1.08734 1.0872 1.08705 1.08689 1.08672 1.08653 1.08632 1.08609 1.08584 1.08556 1.08524 1.08489 1.08447 1.08399 1.08341 1.08271 1.08187 1.08085 1.07962 1.07818 1.07652 1.07461 1.0724 1.06973 1.06631 1.06179 1.05587 1.04847 1.03997 1.03112 1.02282 1.01578 1.01032 1.00642 1.00381 1.00216 1.00118 1.00061 1.00031 1.00015 1.00007 1.00003 1.00001 1.00001 1 1 1 1 1 1 1 1 1 1 1 1 1 1 1 1 1 1 1 1 1 1 1 1 1 1 1 1 1 1 1 1 1 1 1 1 1 1 1 1 1 1 1 1 1 1 1 1 1 1 1 1 1 1 1 1 1 1 1 1 1 1 1 1 1 1 1 1 1 1 1 1 0.999999 0.999998 0.999996 0.999992 0.999985 0.99997 0.999943 0.999898 0.999822 0.999702 0.99952 0.999255 0.998885 0.998387 0.997743 0.996942 0.995978 0.994858 0.993595 0.992212 0.990734 0.989191 0.987613 0.986025 0.984451 0.982909 0.98141 0.979962 0.978569 0.97723 0.975942 0.9747 0.973499 0.972333 0.971198 0.970088 0.969 0.967929 0.966875 0.965833 0.964802 0.96378 0.962767 0.96176 0.960759 0.959762 0.958768 0.957777 0.956787 0.955798 0.954808 0.953817 0.952823 0.951827 0.950827 0.949822 0.948812 0.947795 0.94677 0.945738 0.944696 0.943643 0.942579 0.941503 0.940413 0.939309 0.938187 0.937049 0.935891 0.934713 0.933513 0.932289 0.93104 0.929764 0.928459 0.927124 0.925757 0.924357 0.922923 0.921455 0.919953 0.918417 0.916849 0.915254 0.913634 0.911996 0.910348 0.908699 0.907063 0.905476 0.905476 
1.09021 1.09018 1.09018 1.09017 1.09016 1.09015 1.09013 1.09011 1.09009 1.09007 1.09003 1.09001 1.08996 1.08994 1.08988 1.08986 1.08979 1.08977 1.08969 1.08967 1.08958 1.08956 1.08947 1.08945 1.08935 1.08933 1.08923 1.0892 1.08911 1.08907 1.08898 1.08894 1.08885 1.0888 1.08871 1.08865 1.08856 1.08849 1.0884 1.08833 1.08823 1.08815 1.08805 1.08796 1.08785 1.08775 1.08763 1.08751 1.08738 1.08725 1.0871 1.08695 1.08678 1.0866 1.0864 1.08619 1.08595 1.08569 1.0854 1.08507 1.0847 1.08426 1.08376 1.08316 1.08244 1.08158 1.08054 1.07932 1.07791 1.07632 1.07452 1.07247 1.06999 1.0668 1.06252 1.05678 1.04949 1.04099 1.03203 1.02355 1.01631 1.01068 1.00664 1.00394 1.00223 1.00122 1.00063 1.00032 1.00015 1.00007 1.00003 1.00001 1.00001 1 1 1 1 1 1 1 1 1 1 1 1 1 1 1 1 1 1 1 1 1 1 1 1 1 1 1 1 1 1 1 1 1 1 1 1 1 1 1 1 1 1 1 1 1 1 1 1 1 1 1 1 1 1 1 1 1 1 1 1 1 1 1 1 1 1 1 1 1 1 1 1 0.999999 0.999999 0.999997 0.999993 0.999986 0.999972 0.999947 0.999904 0.999832 0.999719 0.999545 0.99929 0.998932 0.998449 0.997823 0.997039 0.996094 0.994992 0.993745 0.992376 0.990909 0.989376 0.987804 0.986221 0.98465 0.983108 0.981609 0.980159 0.978764 0.977421 0.97613 0.974884 0.973679 0.97251 0.971372 0.970259 0.969168 0.968095 0.967038 0.965994 0.964961 0.963938 0.962924 0.961916 0.960914 0.959916 0.958922 0.95793 0.95694 0.955951 0.954961 0.95397 0.952978 0.951982 0.950983 0.94998 0.948971 0.947956 0.946935 0.945905 0.944866 0.943818 0.942759 0.941688 0.940604 0.939506 0.938392 0.937262 0.936115 0.934948 0.933761 0.932552 0.93132 0.930064 0.928781 0.927471 0.926132 0.924764 0.923367 0.921939 0.920481 0.918995 0.917481 0.915943 0.914385 0.91281 0.911225 0.909639 0.908062 0.906525 0.906525 
1.0901 1.09008 1.09008 1.09007 1.09006 1.09005 1.09004 1.09002 1.08999 1.08997 1.08994 1.08992 1.08987 1.08985 1.0898 1.08978 1.08971 1.08969 1.08961 1.08959 1.08951 1.08949 1.0894 1.08938 1.08928 1.08926 1.08916 1.08914 1.08904 1.08901 1.08892 1.08888 1.08878 1.08873 1.08864 1.08858 1.08849 1.08843 1.08834 1.08826 1.08816 1.08808 1.08798 1.08788 1.08777 1.08766 1.08755 1.08742 1.08729 1.08715 1.087 1.08684 1.08667 1.08648 1.08628 1.08606 1.08581 1.08554 1.08524 1.0849 1.08451 1.08406 1.08353 1.08291 1.08217 1.08129 1.08025 1.07904 1.07767 1.07614 1.07446 1.07256 1.07028 1.06731 1.06325 1.05769 1.0505 1.04199 1.03292 1.02426 1.01683 1.01103 1.00686 1.00406 1.0023 1.00125 1.00065 1.00033 1.00016 1.00007 1.00003 1.00001 1.00001 1 1 1 1 1 1 1 1 1 1 1 1 1 1 1 1 1 1 1 1 1 1 1 1 1 1 1 1 1 1 1 1 1 1 1 1 1 1 1 1 1 1 1 1 1 1 1 1 1 1 1 1 1 1 1 1 1 1 1 1 1 1 1 1 1 1 1 1 1 1 1 1 0.999999 0.999999 0.999997 0.999994 0.999987 0.999974 0.999951 0.999911 0.999844 0.999736 0.999571 0.999328 0.998985 0.99852 0.997912 0.99715 0.996226 0.995144 0.993916 0.992562 0.991109 0.989585 0.98802 0.986441 0.984872 0.98333 0.981829 0.980377 0.978977 0.977631 0.976335 0.975085 0.973876 0.972703 0.971561 0.970444 0.96935 0.968275 0.967216 0.96617 0.965135 0.964111 0.963095 0.962086 0.961082 0.960084 0.959089 0.958097 0.957107 0.956117 0.955128 0.954138 0.953146 0.952151 0.951153 0.950152 0.949145 0.948132 0.947113 0.946086 0.945051 0.944006 0.942951 0.941885 0.940807 0.939716 0.93861 0.937489 0.936351 0.935196 0.934022 0.932827 0.931611 0.930373 0.92911 0.927824 0.926511 0.925173 0.923808 0.922416 0.920998 0.919555 0.918088 0.9166 0.915094 0.913572 0.912041 0.910507 0.908981 0.907486 0.907486 
1.09001 1.08998 1.08998 1.08998 1.08997 1.08996 1.08994 1.08993 1.0899 1.08988 1.08985 1.08983 1.08979 1.08977 1.08971 1.08969 1.08963 1.08961 1.08953 1.08952 1.08943 1.08942 1.08933 1.08931 1.08921 1.0892 1.0891 1.08907 1.08898 1.08895 1.08885 1.08881 1.08872 1.08867 1.08858 1.08852 1.08843 1.08836 1.08827 1.08819 1.08809 1.088 1.0879 1.0878 1.08769 1.08758 1.08746 1.08733 1.0872 1.08706 1.0869 1.08674 1.08656 1.08637 1.08616 1.08592 1.08567 1.08539 1.08507 1.08472 1.08431 1.08385 1.0833 1.08267 1.08191 1.08102 1.07997 1.07877 1.07744 1.07599 1.07442 1.07268 1.07059 1.06784 1.06399 1.0586 1.0515 1.04297 1.03378 1.02495 1.01732 1.01136 1.00706 1.00418 1.00237 1.00129 1.00067 1.00034 1.00016 1.00007 1.00003 1.00001 1.00001 1 1 1 1 1 1 1 1 1 1 1 1 1 1 1 1 1 1 1 1 1 1 1 1 1 1 1 1 1 1 1 1 1 1 1 1 1 1 1 1 1 1 1 1 1 1 1 1 1 1 1 1 1 1 1 1 1 1 1 1 1 1 1 1 1 1 1 1 1 1 1 1 0.999999 0.999999 0.999997 0.999994 0.999988 0.999977 0.999955 0.999918 0.999856 0.999755 0.999599 0.999369 0.999042 0.998596 0.998011 0.997272 0.996372 0.995313 0.994106 0.992771 0.991332 0.989819 0.988262 0.986686 0.985118 0.983575 0.982071 0.980615 0.979211 0.977859 0.976558 0.975303 0.974089 0.972912 0.971766 0.970646 0.969548 0.96847 0.967408 0.96636 0.965324 0.964297 0.96328 0.962269 0.961265 0.960266 0.95927 0.958278 0.957287 0.956298 0.955309 0.954319 0.953327 0.952334 0.951337 0.950337 0.949332 0.948321 0.947304 0.94628 0.945248 0.944208 0.943158 0.942097 0.941024 0.93994 0.938841 0.937729 0.9366 0.935456 0.934293 0.933112 0.931912 0.93069 0.929448 0.928182 0.926894 0.925582 0.924247 0.922887 0.921505 0.9201 0.918674 0.917229 0.915767 0.914291 0.912806 0.911317 0.909833 0.908375 0.908375 