# vtk DataFile Version 3.0
LBM simulation at step 60
ASCII
DATASET STRUCTURED_POINTS
DIMENSIONS 128 128 1
ORIGIN 0 0 0
SPACING 1 1 1
POINT_DATA 16384
SCALARS density float
LOOKUP_TABLE default
0.953646 1.01903 1.02081 1.01754 1.01779 1.01799 1.01785 1.01774 1.01768 1.01763 1.01757 1.01753 1.01748 1.01744 1.0174 1.01735 1.01731 1.01727 1.01722 1.01717 1.01711 1.01703 1.01694 1.01683 1.01667 1.01646 1.01619 1.0158 1.01527 1.0145 1.01342 1.01197 1.01017 1.00814 1.00609 1.00423 1.00272 1.00161 1.00088 1.00044 1.00021 1.00009 1.00003 1.00001 1 1 1 1 1 1 1 1 1 1 1 1 1 1 1 1 1 1 1 1 1 1 1 1 1 1 1 1 1 1 1 1 1 1 1 1 1 1 1 1 1 0.999999 0.999996 0.999988 0.999968 0.999925 0.999837 0.999675 0.999405 0.998993 0.998417 0.997676 0.996794 0.995814 0.994784 0.993746 0.99273 0.991748 0.990804 0.989895 0.989019 0.988171 0.987347 0.986543 0.985754 0.984976 0.984205 0.983437 0.982669 0.981899 0.981122 0.980337 0.979538 0.978723 0.977885 0.977024 0.976113 0.975133 0.974128 0.97343 0.971231 0.969615 0.986767 0.986767 
1.02161 1.01966 1.01586 1.01715 1.01802 1.01795 1.01781 1.01773 1.01766 1.01761 1.01756 1.01751 1.01746 1.01742 1.01737 1.01733 1.01729 1.01724 1.01719 1.01713 1.01706 1.01698 1.01688 1.01676 1.01659 1.01636 1.01606 1.01566 1.01512 1.01438 1.01336 1.01202 1.01034 1.00842 1.00643 1.00456 1.003 1.00182 1.00102 1.00052 1.00025 1.00011 1.00004 1.00002 1.00001 1 1 1 1 1 1 1 1 1 1 1 1 1 1 1 1 1 1 1 1 1 1 1 1 1 1 1 1 1 1 1 1 1 1 1 1 1 1 1 1 0.999998 0.999995 0.999985 0.999961 0.99991 0.999809 0.999628 0.999333 0.998894 0.998294 0.997538 0.996655 0.995686 0.994676 0.993661 0.992665 0.991698 0.990764 0.98986 0.988987 0.98814 0.987316 0.98651 0.985719 0.984938 0.984163 0.98339 0.982618 0.981842 0.981058 0.980265 0.979456 0.978629 0.977778 0.976903 0.975989 0.974975 0.973778 0.972796 0.97313 0.973941 0.971735 0.971735 
1.02898 1.01652 1.01592 1.01845 1.01807 1.01767 1.01769 1.01771 1.01765 1.01758 1.01753 1.01748 1.01744 1.01739 1.01735 1.0173 1.01725 1.0172 1.01714 1.01708 1.017 1.01691 1.0168 1.01666 1.01649 1.01625 1.01595 1.01556 1.01505 1.01436 1.01343 1.01217 1.01057 1.0087 1.00671 1.00482 1.00321 1.00197 1.00112 1.00058 1.00028 1.00012 1.00005 1.00002 1.00001 1 1 1 1 1 1 1 1 1 1 1 1 1 1 1 1 1 1 1 1 1 1 1 1 1 1 1 1 1 1 1 1 1 1 1 1 1 1 1 0.999999 0.999998 0.999994 0.999983 0.999958 0.999902 0.999795 0.999604 0.999296 0.998841 0.998225 0.997457 0.996565 0.995595 0.99459 0.993586 0.992604 0.991651 0.990728 0.989835 0.988968 0.988126 0.987304 0.986498 0.985706 0.984923 0.984145 0.98337 0.982593 0.981812 0.981024 0.980224 0.979409 0.978576 0.977717 0.976812 0.975867 0.97494 0.974015 0.972854 0.972015 0.96986 0.96297 0.96297 
1.01378 1.01815 1.02018 1.01786 1.01722 1.01773 1.01781 1.01766 1.01758 1.01755 1.0175 1.01746 1.01741 1.01736 1.01731 1.01726 1.01721 1.01716 1.01709 1.01702 1.01694 1.01685 1.01673 1.01659 1.0164 1.01617 1.01587 1.0155 1.01502 1.01437 1.0135 1.01231 1.01077 1.00894 1.00697 1.00505 1.00339 1.0021 1.0012 1.00063 1.00031 1.00014 1.00006 1.00002 1.00001 1 1 1 1 1 1 1 1 1 1 1 1 1 1 1 1 1 1 1 1 1 1 1 1 1 1 1 1 1 1 1 1 1 1 1 1 1 1 1 0.999999 0.999998 0.999994 0.999982 0.999956 0.999899 0.999788 0.999592 0.999277 0.998815 0.998192 0.997417 0.996521 0.99555 0.994548 0.993549 0.992574 0.991629 0.990715 0.989829 0.988968 0.988129 0.987309 0.986505 0.985713 0.984929 0.98415 0.983372 0.982594 0.98181 0.981019 0.980216 0.979396 0.978555 0.977694 0.976807 0.975865 0.974843 0.973886 0.972935 0.971583 0.96924 0.964699 0.964699 
1.018 1.01868 1.01779 1.01736 1.01794 1.01784 1.0176 1.01757 1.01757 1.01752 1.01746 1.01742 1.01737 1.01733 1.01727 1.01722 1.01717 1.01711 1.01705 1.01697 1.01689 1.01679 1.01667 1.01652 1.01633 1.0161 1.01581 1.01544 1.01498 1.01438 1.01356 1.01244 1.01097 1.00918 1.00721 1.00528 1.00357 1.00223 1.00129 1.00068 1.00033 1.00015 1.00006 1.00002 1.00001 1 1 1 1 1 1 1 1 1 1 1 1 1 1 1 1 1 1 1 1 1 1 1 1 1 1 1 1 1 1 1 1 1 1 1 1 1 1 1 0.999999 0.999998 0.999994 0.999982 0.999955 0.999898 0.999786 0.99959 0.999274 0.99881 0.998186 0.99741 0.996514 0.995544 0.994545 0.99355 0.99258 0.991641 0.990732 0.98985 0.988993 0.988156 0.987338 0.986534 0.985742 0.984957 0.984178 0.983399 0.982619 0.981834 0.981041 0.980236 0.979417 0.978578 0.977709 0.976813 0.975898 0.974936 0.973901 0.972734 0.970999 0.969431 0.968043 0.968043 
1.01891 1.01782 1.0174 1.01803 1.01789 1.01754 1.01757 1.0176 1.01753 1.01747 1.01742 1.01738 1.01733 1.01729 1.01724 1.01719 1.01713 1.01707 1.017 1.01692 1.01684 1.01673 1.0166 1.01645 1.01626 1.01602 1.01574 1.01539 1.01495 1.01439 1.01363 1.01257 1.01116 1.00941 1.00745 1.00549 1.00375 1.00236 1.00137 1.00073 1.00036 1.00016 1.00007 1.00003 1.00001 1 1 1 1 1 1 1 1 1 1 1 1 1 1 1 1 1 1 1 1 1 1 1 1 1 1 1 1 1 1 1 1 1 1 1 1 1 1 1 0.999999 0.999998 0.999994 0.999983 0.999956 0.9999 0.999791 0.999597 0.999286 0.998827 0.998207 0.997435 0.996543 0.995575 0.994577 0.993585 0.992618 0.991682 0.990778 0.9899 0.989045 0.98821 0.987392 0.986589 0.985796 0.985011 0.98423 0.983451 0.98267 0.981885 0.981092 0.980287 0.979467 0.978631 0.977772 0.976879 0.975953 0.974996 0.97395 0.97283 0.971451 0.970053 0.969054 0.969054 
1.01742 1.01772 1.01792 1.01778 1.01752 1.0176 1.01762 1.01751 1.01746 1.01743 1.01739 1.01734 1.01729 1.01725 1.0172 1.01715 1.01709 1.01702 1.01695 1.01687 1.01678 1.01667 1.01654 1.01638 1.01619 1.01595 1.01567 1.01533 1.01492 1.0144 1.0137 1.01271 1.01136 1.00964 1.00769 1.0057 1.00391 1.00247 1.00144 1.00077 1.00038 1.00017 1.00007 1.00003 1.00001 1 1 1 1 1 1 1 1 1 1 1 1 1 1 1 1 1 1 1 1 1 1 1 1 1 1 1 1 1 1 1 1 1 1 1 1 1 1 1 0.999999 0.999998 0.999994 0.999984 0.999959 0.999905 0.9998 0.999613 0.99931 0.998862 0.998254 0.997492 0.996606 0.995642 0.994645 0.993653 0.992687 0.991753 0.990851 0.989975 0.989123 0.988289 0.987472 0.986669 0.985876 0.98509 0.984309 0.983529 0.982748 0.981963 0.98117 0.980367 0.97955 0.978715 0.97786 0.976981 0.976068 0.975115 0.974072 0.972964 0.971889 0.970674 0.969489 0.969489 
1.01758 1.01768 1.01769 1.01755 1.01758 1.0176 1.0175 1.01745 1.01743 1.01739 1.01734 1.0173 1.01725 1.01721 1.01716 1.0171 1.01704 1.01698 1.0169 1.01682 1.01672 1.01661 1.01648 1.01631 1.01612 1.01589 1.01561 1.01529 1.01491 1.01443 1.01378 1.01286 1.01156 1.00987 1.00792 1.0059 1.00407 1.00258 1.00151 1.00081 1.0004 1.00018 1.00008 1.00003 1.00001 1 1 1 1 1 1 1 1 1 1 1 1 1 1 1 1 1 1 1 1 1 1 1 1 1 1 1 1 1 1 1 1 1 1 1 1 1 1 1 1 0.999998 0.999995 0.999985 0.999962 0.999912 0.999813 0.999636 0.999347 0.998915 0.998324 0.997578 0.996704 0.995745 0.99475 0.993757 0.992788 0.991854 0.990952 0.990078 0.989226 0.988394 0.987578 0.986774 0.985981 0.985195 0.984413 0.983634 0.982853 0.982068 0.981277 0.980476 0.979663 0.978834 0.977984 0.977113 0.976209 0.975271 0.974296 0.97325 0.972211 0.971133 0.969985 0.969985 
1.01767 1.01755 1.01752 1.01754 1.01755 1.01747 1.01744 1.01743 1.01738 1.01734 1.0173 1.01726 1.01721 1.01716 1.01711 1.01706 1.017 1.01693 1.01685 1.01677 1.01667 1.01655 1.01641 1.01625 1.01605 1.01582 1.01555 1.01525 1.01489 1.01446 1.01387 1.013 1.01176 1.0101 1.00814 1.0061 1.00422 1.00269 1.00157 1.00085 1.00042 1.00019 1.00008 1.00003 1.00001 1 1 1 1 1 1 1 1 1 1 1 1 1 1 1 1 1 1 1 1 1 1 1 1 1 1 1 1 1 1 1 1 1 1 1 1 1 1 1 1 0.999999 0.999995 0.999987 0.999966 0.99992 0.99983 0.999665 0.999394 0.998984 0.998416 0.997691 0.996833 0.995884 0.994892 0.993896 0.992924 0.991986 0.991082 0.990208 0.989357 0.988525 0.987708 0.986905 0.986111 0.985325 0.984544 0.983764 0.982984 0.982201 0.981411 0.980613 0.979804 0.978981 0.97814 0.977279 0.976391 0.975469 0.974529 0.973555 0.972534 0.971526 0.970499 0.970499 
1.01748 1.01748 1.01749 1.01748 1.01744 1.01741 1.0174 1.01737 1.01732 1.01729 1.01725 1.01721 1.01716 1.01712 1.01706 1.01701 1.01695 1.01688 1.0168 1.01671 1.01661 1.01649 1.01635 1.01618 1.01599 1.01576 1.0155 1.01521 1.01489 1.0145 1.01397 1.01316 1.01196 1.01032 1.00836 1.00628 1.00436 1.00278 1.00163 1.00088 1.00043 1.0002 1.00008 1.00003 1.00001 1 1 1 1 1 1 1 1 1 1 1 1 1 1 1 1 1 1 1 1 1 1 1 1 1 1 1 1 1 1 1 1 1 1 1 1 1 1 1 1 0.999999 0.999996 0.999989 0.99997 0.99993 0.999848 0.999699 0.999448 0.999064 0.998526 0.997829 0.996994 0.996059 0.995071 0.994073 0.993096 0.992152 0.991244 0.990367 0.989515 0.988683 0.987866 0.987062 0.986268 0.985482 0.9847 0.983921 0.983142 0.98236 0.981573 0.980779 0.979974 0.979157 0.978325 0.977474 0.976604 0.975709 0.974788 0.973853 0.972884 0.971909 0.970942 0.970942 
1.01742 1.01742 1.01742 1.0174 1.01738 1.01737 1.01734 1.0173 1.01727 1.01724 1.0172 1.01716 1.01712 1.01707 1.01702 1.01696 1.0169 1.01683 1.01674 1.01665 1.01655 1.01643 1.01628 1.01612 1.01592 1.0157 1.01545 1.01518 1.01489 1.01455 1.01408 1.01333 1.01217 1.01055 1.00857 1.00646 1.00449 1.00287 1.00168 1.00091 1.00045 1.0002 1.00008 1.00003 1.00001 1 1 1 1 1 1 1 1 1 1 1 1 1 1 1 1 1 1 1 1 1 1 1 1 1 1 1 1 1 1 1 1 1 1 1 1 1 1 1 1 0.999999 0.999997 0.999991 0.999975 0.99994 0.999868 0.999735 0.999507 0.999154 0.99865 0.997988 0.997182 0.996266 0.995287 0.994289 0.993305 0.992353 0.991438 0.990557 0.989702 0.988868 0.988051 0.987247 0.986452 0.985666 0.984884 0.984106 0.983328 0.982548 0.981763 0.980973 0.980173 0.979363 0.97854 0.9777 0.976844 0.975971 0.975074 0.974162 0.973236 0.972294 0.971352 0.971352 
1.01737 1.01735 1.01734 1.01733 1.01732 1.0173 1.01728 1.01725 1.01722 1.01719 1.01715 1.01711 1.01707 1.01702 1.01697 1.01691 1.01684 1.01677 1.01669 1.0166 1.01649 1.01636 1.01622 1.01605 1.01586 1.01564 1.01541 1.01516 1.01491 1.01462 1.0142 1.0135 1.01238 1.01077 1.00877 1.00662 1.00461 1.00295 1.00173 1.00093 1.00046 1.00021 1.00009 1.00003 1.00001 1 1 1 1 1 1 1 1 1 1 1 1 1 1 1 1 1 1 1 1 1 1 1 1 1 1 1 1 1 1 1 1 1 1 1 1 1 1 1 1 0.999999 0.999997 0.999992 0.999979 0.99995 0.999888 0.999772 0.99957 0.99925 0.998785 0.998164 0.997394 0.996505 0.99554 0.994544 0.993554 0.992593 0.991668 0.990779 0.98992 0.989084 0.988265 0.98746 0.986665 0.985878 0.985096 0.984318 0.983541 0.982763 0.981982 0.981195 0.980401 0.979597 0.978783 0.977955 0.977112 0.976255 0.975382 0.974492 0.973592 0.972679 0.971759 0.971759 
1.0173 1.01728 1.01728 1.01727 1.01726 1.01724 1.01722 1.0172 1.01717 1.01714 1.0171 1.01706 1.01701 1.01697 1.01691 1.01686 1.01679 1.01672 1.01663 1.01653 1.01642 1.0163 1.01615 1.01599 1.0158 1.01559 1.01537 1.01515 1.01493 1.0147 1.01433 1.01369 1.01259 1.01098 1.00896 1.00678 1.00472 1.00302 1.00177 1.00095 1.00047 1.00021 1.00009 1.00003 1.00001 1 1 1 1 1 1 1 1 1 1 1 1 1 1 1 1 1 1 1 1 1 1 1 1 1 1 1 1 1 1 1 1 1 1 1 1 1 1 1 1 0.999999 0.999998 0.999994 0.999984 0.999959 0.999908 0.999808 0.999632 0.999348 0.998927 0.998352 0.997626 0.996771 0.995827 0.994838 0.993844 0.992873 0.991937 0.991038 0.990172 0.989331 0.988509 0.987702 0.986907 0.986119 0.985338 0.98456 0.983784 0.983008 0.98223 0.981447 0.980658 0.979861 0.979055 0.978238 0.977408 0.976565 0.97571 0.974842 0.973961 0.973071 0.972173 0.972173 
1.01724 1.01722 1.01722 1.01721 1.0172 1.01718 1.01716 1.01714 1.01711 1.01708 1.01704 1.01701 1.01696 1.01692 1.01686 1.0168 1.01673 1.01666 1.01657 1.01647 1.01636 1.01623 1.01609 1.01592 1.01574 1.01554 1.01533 1.01514 1.01498 1.01479 1.01448 1.01388 1.01281 1.01119 1.00915 1.00692 1.00481 1.00308 1.0018 1.00097 1.00048 1.00022 1.00009 1.00003 1.00001 1 1 1 1 1 1 1 1 1 1 1 1 1 1 1 1 1 1 1 1 1 1 1 1 1 1 1 1 1 1 1 1 1 1 1 1 1 1 1 1 1 0.999999 0.999995 0.999987 0.999968 0.999926 0.999843 0.999693 0.999445 0.999071 0.998548 0.997872 0.99706 0.996145 0.99517 0.994176 0.993196 0.992247 0.991336 0.99046 0.989612 0.988786 0.987977 0.987179 0.986391 0.985609 0.984832 0.984057 0.983283 0.982508 0.981729 0.980945 0.980155 0.979357 0.978549 0.977731 0.976902 0.976062 0.975211 0.974348 0.973476 0.972598 0.972598 
1.01718 1.01716 1.01716 1.01715 1.01714 1.01713 1.01711 1.01708 1.01706 1.01703 1.01699 1.01695 1.01691 1.01686 1.0168 1.01674 1.01667 1.0166 1.01651 1.01641 1.0163 1.01617 1.01602 1.01586 1.01568 1.01549 1.01531 1.01515 1.01503 1.01491 1.01465 1.01408 1.01302 1.0114 1.00932 1.00704 1.0049 1.00313 1.00183 1.00098 1.00048 1.00022 1.00009 1.00003 1.00001 1 1 1 1 1 1 1 1 1 1 1 1 1 1 1 1 1 1 1 1 1 1 1 1 1 1 1 1 1 1 1 1 1 1 1 1 1 1 1 1 1 0.999999 0.999997 0.99999 0.999975 0.999942 0.999874 0.99975 0.999539 0.999212 0.998745 0.998127 0.997366 0.99649 0.995537 0.99455 0.993564 0.992603 0.991677 0.990788 0.98993 0.989098 0.988284 0.987485 0.986695 0.985913 0.985136 0.984362 0.98359 0.982817 0.982042 0.981263 0.980479 0.979689 0.97889 0.978083 0.977266 0.97644 0.975603 0.974757 0.973901 0.973039 0.973039 
1.01712 1.0171 1.0171 1.01709 1.01708 1.01707 1.01705 1.01703 1.017 1.01697 1.01693 1.0169 1.01685 1.0168 1.01674 1.01668 1.01661 1.01654 1.01645 1.01635 1.01623 1.0161 1.01596 1.01579 1.01562 1.01545 1.01529 1.01518 1.01512 1.01504 1.01483 1.01429 1.01324 1.01159 1.00947 1.00716 1.00497 1.00317 1.00185 1.00099 1.00049 1.00022 1.00009 1.00003 1.00001 1 1 1 1 1 1 1 1 1 1 1 1 1 1 1 1 1 1 1 1 1 1 1 1 1 1 1 1 1 1 1 1 1 1 1 1 1 1 1 1 1 0.999999 0.999998 0.999993 0.999982 0.999956 0.999902 0.999801 0.999626 0.999347 0.998938 0.998382 0.997681 0.996854 0.995935 0.994963 0.993977 0.993005 0.992064 0.99116 0.99029 0.989448 0.988629 0.987825 0.987033 0.98625 0.985474 0.984701 0.98393 0.98316 0.982388 0.981614 0.980836 0.980052 0.979262 0.978465 0.977659 0.976845 0.976022 0.97519 0.974349 0.973501 0.973501 
1.01706 1.01704 1.01704 1.01703 1.01702 1.017 1.01699 1.01697 1.01694 1.01691 1.01687 1.01684 1.01679 1.01674 1.01668 1.01662 1.01655 1.01647 1.01638 1.01628 1.01616 1.01603 1.01589 1.01573 1.01557 1.01541 1.0153 1.01523 1.01522 1.0152 1.01503 1.01451 1.01345 1.01177 1.00961 1.00726 1.00504 1.00321 1.00187 1.001 1.00049 1.00022 1.00009 1.00003 1.00001 1 1 1 1 1 1 1 1 1 1 1 1 1 1 1 1 1 1 1 1 1 1 1 1 1 1 1 1 1 1 1 1 1 1 1 1 1 1 1 1 1 1 0.999998 0.999995 0.999987 0.999968 0.999927 0.999847 0.999704 0.999472 0.999121 0.998633 0.997999 0.997231 0.996356 0.99541 0.994433 0.993456 0.992502 0.991581 0.990696 0.989842 0.989013 0.988204 0.987409 0.986624 0.985847 0.985074 0.984305 0.983537 0.982769 0.982 0.981227 0.98045 0.979668 0.97888 0.978084 0.977282 0.976471 0.975652 0.974825 0.973991 0.973991 
1.017 1.01697 1.01697 1.01696 1.01696 1.01694 1.01692 1.0169 1.01688 1.01685 1.01681 1.01677 1.01673 1.01668 1.01662 1.01656 1.01648 1.0164 1.01631 1.01621 1.01609 1.01596 1.01582 1.01567 1.01552 1.0154 1.01532 1.01531 1.01535 1.01538 1.01524 1.01472 1.01364 1.01194 1.00974 1.00734 1.00509 1.00324 1.00189 1.00101 1.0005 1.00022 1.00009 1.00003 1.00001 1 1 1 1 1 1 1 1 1 1 1 1 1 1 1 1 1 1 1 1 1 1 1 1 1 1 1 1 1 1 1 1 1 1 1 1 1 1 1 1 1 1 0.999999 0.999997 0.999991 0.999977 0.999946 0.999885 0.999773 0.999584 0.999291 0.998871 0.99831 0.99761 0.996792 0.995886 0.994928 0.993955 0.992991 0.992055 0.991152 0.990283 0.989443 0.988625 0.987824 0.987037 0.986258 0.985486 0.984718 0.983952 0.983187 0.982422 0.981654 0.980884 0.980109 0.97933 0.978544 0.977752 0.976953 0.976147 0.975333 0.974512 0.974512 
1.01694 1.01691 1.01691 1.0169 1.01689 1.01688 1.01686 1.01684 1.01681 1.01678 1.01675 1.01671 1.01666 1.01661 1.01655 1.01649 1.01642 1.01633 1.01624 1.01614 1.01602 1.01589 1.01575 1.01561 1.01549 1.0154 1.01537 1.01542 1.01551 1.01557 1.01545 1.01493 1.01383 1.01209 1.00985 1.00741 1.00513 1.00326 1.0019 1.00101 1.0005 1.00022 1.00009 1.00003 1.00001 1 1 1 1 1 1 1 1 1 1 1 1 1 1 1 1 1 1 1 1 1 1 1 1 1 1 1 1 1 1 1 1 1 1 1 1 1 1 1 1 1 1 0.999999 0.999998 0.999994 0.999984 0.999962 0.999917 0.999831 0.999682 0.999443 0.999091 0.998606 0.997983 0.997233 0.99638 0.995456 0.994497 0.993532 0.992584 0.991665 0.990778 0.989923 0.989094 0.988285 0.987492 0.986711 0.985938 0.98517 0.984406 0.983645 0.982883 0.982121 0.981357 0.98059 0.979818 0.979042 0.978261 0.977473 0.976679 0.975878 0.97507 0.97507 
1.01687 1.01683 1.01683 1.01683 1.01682 1.01681 1.01679 1.01677 1.01674 1.01672 1.01668 1.01664 1.01659 1.01654 1.01648 1.01642 1.01634 1.01626 1.01616 1.01606 1.01594 1.01581 1.01568 1.01557 1.01548 1.01543 1.01546 1.01556 1.01569 1.01579 1.01567 1.01514 1.014 1.01222 1.00993 1.00747 1.00516 1.00327 1.00191 1.00102 1.0005 1.00022 1.00009 1.00003 1.00001 1 1 1 1 1 1 1 1 1 1 1 1 1 1 1 1 1 1 1 1 1 1 1 1 1 1 1 1 1 1 1 1 1 1 1 1 1 1 1 1 1 1 1 0.999999 0.999996 0.99999 0.999974 0.999942 0.999878 0.999764 0.999576 0.999288 0.998879 0.998338 0.997667 0.99688 0.996005 0.995075 0.99412 0.993168 0.992236 0.991333 0.99046 0.989617 0.988797 0.987997 0.987211 0.986435 0.985667 0.984904 0.984145 0.983387 0.98263 0.981872 0.981112 0.980349 0.979582 0.978811 0.978035 0.977253 0.976464 0.97567 0.97567 
1.0168 1.01676 1.01676 1.01675 1.01675 1.01674 1.01672 1.0167 1.01667 1.01664 1.01661 1.01657 1.01652 1.01647 1.01641 1.01634 1.01627 1.01618 1.01608 1.01598 1.01586 1.01574 1.01563 1.01554 1.01549 1.0155 1.01558 1.01573 1.0159 1.016 1.01588 1.01532 1.01415 1.01233 1.01001 1.00751 1.00518 1.00329 1.00191 1.00102 1.0005 1.00022 1.00009 1.00003 1.00001 1 1 1 1 1 1 1 1 1 1 1 1 1 1 1 1 1 1 1 1 1 1 1 1 1 1 1 1 1 1 1 1 1 1 1 1 1 1 1 1 1 1 1 0.999999 0.999998 0.999993 0.999983 0.999961 0.999915 0.999831 0.999686 0.999459 0.999125 0.998668 0.998081 0.997373 0.996563 0.995678 0.994748 0.993804 0.992866 0.991949 0.99106 0.990201 0.989367 0.988556 0.987763 0.986983 0.986213 0.98545 0.984692 0.983938 0.983185 0.982433 0.98168 0.980926 0.980168 0.979408 0.978643 0.977873 0.977099 0.976319 0.976319 
1.01672 1.01668 1.01668 1.01667 1.01667 1.01666 1.01664 1.01662 1.0166 1.01657 1.01653 1.01649 1.01644 1.01639 1.01633 1.01626 1.01618 1.0161 1.016 1.01589 1.01578 1.01568 1.0156 1.01555 1.01555 1.01561 1.01574 1.01592 1.01612 1.01622 1.01608 1.01549 1.01428 1.01241 1.01006 1.00754 1.0052 1.00329 1.00191 1.00102 1.0005 1.00022 1.00009 1.00004 1.00001 1 1 1 1 1 1 1 1 1 1 1 1 1 1 1 1 1 1 1 1 1 1 1 1 1 1 1 1 1 1 1 1 1 1 1 1 1 1 1 1 1 1 1 1 0.999999 0.999996 0.999989 0.999974 0.999943 0.999883 0.999776 0.999602 0.999337 0.998963 0.998466 0.997846 0.997114 0.996291 0.995404 0.994482 0.993551 0.992628 0.991726 0.990851 0.990002 0.989178 0.988375 0.987588 0.986814 0.98605 0.985293 0.984541 0.983792 0.983046 0.9823 0.981553 0.980806 0.980056 0.979303 0.978547 0.977787 0.977022 0.977022 
1.01664 1.01658 1.01659 1.01659 1.01658 1.01657 1.01656 1.01654 1.01651 1.01649 1.01645 1.01641 1.01636 1.01631 1.01625 1.01618 1.0161 1.01601 1.01591 1.01581 1.01572 1.01564 1.0156 1.0156 1.01565 1.01576 1.01593 1.01614 1.01634 1.01643 1.01626 1.01563 1.01438 1.01248 1.0101 1.00756 1.00521 1.0033 1.00192 1.00102 1.0005 1.00022 1.00009 1.00004 1.00001 1 1 1 1 1 1 1 1 1 1 1 1 1 1 1 1 1 1 1 1 1 1 1 1 1 1 1 1 1 1 1 1 1 1 1 1 1 1 1 1 1 1 1 1 0.999999 0.999998 0.999994 0.999984 0.999963 0.999922 0.999846 0.999717 0.999515 0.999218 0.99881 0.998284 0.997642 0.996897 0.996071 0.99519 0.994281 0.993364 0.992457 0.99157 0.990708 0.98987 0.989055 0.988259 0.987479 0.986712 0.985954 0.985203 0.984458 0.983716 0.982977 0.982239 0.981501 0.980762 0.980022 0.97928 0.978536 0.977788 0.977788 
1.01654 1.01648 1.01649 1.01649 1.01649 1.01648 1.01647 1.01645 1.01643 1.0164 1.01637 1.01633 1.01628 1.01622 1.01616 1.01609 1.016 1.01592 1.01583 1.01575 1.01568 1.01564 1.01564 1.01569 1.01579 1.01595 1.01615 1.01637 1.01656 1.01662 1.01642 1.01575 1.01446 1.01253 1.01013 1.00758 1.00522 1.0033 1.00192 1.00102 1.0005 1.00022 1.00009 1.00004 1.00001 1 1 1 1 1 1 1 1 1 1 1 1 1 1 1 1 1 1 1 1 1 1 1 1 1 1 1 1 1 1 1 1 1 1 1 1 1 1 1 1 1 1 1 1 1 0.999999 0.999996 0.999991 0.999977 0.99995 0.999898 0.999807 0.999658 0.999431 0.999108 0.998676 0.99813 0.997477 0.996729 0.995909 0.995041 0.994147 0.993248 0.992358 0.991487 0.990637 0.98981 0.989004 0.988217 0.987444 0.986684 0.985934 0.985191 0.984453 0.983721 0.982991 0.982263 0.981536 0.980809 0.980082 0.979355 0.978626 0.978626 
1.01644 1.01637 1.01639 1.01639 1.01639 1.01639 1.01638 1.01636 1.01634 1.01631 1.01627 1.01623 1.01618 1.01613 1.01606 1.01599 1.01591 1.01584 1.01577 1.01571 1.01568 1.01569 1.01574 1.01584 1.01598 1.01616 1.01638 1.01659 1.01675 1.01679 1.01655 1.01584 1.01452 1.01257 1.01015 1.00759 1.00522 1.0033 1.00192 1.00102 1.0005 1.00022 1.00009 1.00004 1.00001 1 1 1 1 1 1 1 1 1 1 1 1 1 1 1 1 1 1 1 1 1 1 1 1 1 1 1 1 1 1 1 1 1 1 1 1 1 1 1 1 1 1 1 1 1 0.999999 0.999998 0.999995 0.999987 0.99997 0.999936 0.999874 0.999768 0.999602 0.999356 0.999014 0.998567 0.998012 0.997358 0.996617 0.99581 0.994959 0.994086 0.993207 0.992336 0.99148 0.990644 0.989829 0.989034 0.988256 0.987493 0.986742 0.986 0.985267 0.984541 0.983819 0.983102 0.982387 0.981675 0.980965 0.980257 0.979549 0.979549 
1.01632 1.01625 1.01628 1.01629 1.01629 1.01629 1.01628 1.01626 1.01624 1.01621 1.01617 1.01613 1.01608 1.01603 1.01596 1.0159 1.01584 1.01578 1.01574 1.01572 1.01574 1.01579 1.01589 1.01602 1.0162 1.01639 1.0166 1.01679 1.01693 1.01693 1.01665 1.01591 1.01457 1.0126 1.01017 1.0076 1.00523 1.0033 1.00192 1.00102 1.0005 1.00022 1.00009 1.00004 1.00001 1 1 1 1 1 1 1 1 1 1 1 1 1 1 1 1 1 1 1 1 1 1 1 1 1 1 1 1 1 1 1 1 1 1 1 1 1 1 1 1 1 1 1 1 1 1 0.999999 0.999997 0.999993 0.999982 0.999961 0.999921 0.99985 0.999733 0.999553 0.999294 0.998942 0.998489 0.997936 0.997289 0.996564 0.995777 0.99495 0.9941 0.993244 0.992394 0.991557 0.990737 0.989936 0.989154 0.988388 0.987636 0.986897 0.986168 0.985448 0.984736 0.98403 0.983329 0.982634 0.981943 0.981256 0.980572 0.980572 
1.01619 1.01613 1.01616 1.01617 1.01618 1.01618 1.01617 1.01616 1.01614 1.01611 1.01607 1.01603 1.01599 1.01594 1.01588 1.01584 1.01579 1.01577 1.01576 1.01579 1.01585 1.01595 1.01608 1.01625 1.01643 1.01662 1.01681 1.01697 1.01708 1.01704 1.01673 1.01596 1.0146 1.01261 1.01018 1.0076 1.00523 1.00331 1.00192 1.00102 1.0005 1.00022 1.00009 1.00004 1.00001 1 1 1 1 1 1 1 1 1 1 1 1 1 1 1 1 1 1 1 1 1 1 1 1 1 1 1 1 1 1 1 1 1 1 1 1 1 1 1 1 1 1 1 1 1 1 1 0.999999 0.999996 0.99999 0.999978 0.999953 0.999907 0.999829 0.999703 0.999515 0.99925 0.998896 0.998447 0.997904 0.997275 0.996572 0.995813 0.995014 0.994194 0.993365 0.992539 0.991724 0.990924 0.99014 0.989374 0.988623 0.987887 0.987164 0.986453 0.985751 0.985059 0.984374 0.983698 0.983028 0.982367 0.981712 0.981712 
1.01605 1.016 1.01604 1.01606 1.01607 1.01607 1.01607 1.01606 1.01603 1.01601 1.01598 1.01595 1.01591 1.01587 1.01584 1.01581 1.0158 1.01582 1.01585 1.01592 1.01602 1.01615 1.01631 1.01648 1.01666 1.01684 1.01699 1.01712 1.01719 1.01712 1.01678 1.01599 1.01461 1.01262 1.01018 1.0076 1.00523 1.00331 1.00192 1.00102 1.0005 1.00022 1.00009 1.00004 1.00001 1 1 1 1 1 1 1 1 1 1 1 1 1 1 1 1 1 1 1 1 1 1 1 1 1 1 1 1 1 1 1 1 1 1 1 1 1 1 1 1 1 1 1 1 1 1 1 0.999999 0.999998 0.999995 0.999988 0.999973 0.999945 0.999895 0.999812 0.999682 0.999491 0.999227 0.998879 0.998443 0.997919 0.997316 0.996644 0.995919 0.995155 0.994369 0.993572 0.992776 0.991988 0.991212 0.990451 0.989706 0.988976 0.988261 0.987561 0.986872 0.986196 0.985531 0.984877 0.984233 0.983601 0.98298 0.98298 
1.01592 1.01591 1.01594 1.01596 1.01597 1.01598 1.01598 1.01597 1.01595 1.01594 1.01591 1.01589 1.01587 1.01585 1.01584 1.01585 1.01588 1.01593 1.01601 1.01611 1.01624 1.01639 1.01655 1.01671 1.01687 1.01702 1.01714 1.01724 1.01727 1.01718 1.01682 1.01601 1.01463 1.01263 1.01018 1.0076 1.00523 1.00331 1.00192 1.00102 1.0005 1.00022 1.00009 1.00004 1.00001 1 1 1 1 1 1 1 1 1 1 1 1 1 1 1 1 1 1 1 1 1 1 1 1 1 1 1 1 1 1 1 1 1 1 1 1 1 1 1 1 1 1 1 1 1 1 1 1 0.999999 0.999998 0.999994 0.999986 0.99997 0.99994 0.999887 0.999802 0.999672 0.999484 0.999227 0.998893 0.998477 0.997982 0.997413 0.996779 0.996095 0.995373 0.994627 0.993869 0.993109 0.992354 0.991609 0.990877 0.99016 0.989458 0.988772 0.988101 0.987445 0.986803 0.986175 0.985562 0.984964 0.984381 0.984381 
1.01584 1.01586 1.01589 1.01591 1.01592 1.01592 1.01592 1.01592 1.01591 1.0159 1.01589 1.01589 1.01589 1.0159 1.01592 1.01597 1.01602 1.01611 1.01621 1.01634 1.01648 1.01663 1.01678 1.01692 1.01705 1.01717 1.01726 1.01732 1.01733 1.01721 1.01684 1.01603 1.01463 1.01263 1.01018 1.0076 1.00523 1.00331 1.00192 1.00102 1.0005 1.00022 1.00009 1.00004 1.00001 1 1 1 1 1 1 1 1 1 1 1 1 1 1 1 1 1 1 1 1 1 1 1 1 1 1 1 1 1 1 1 1 1 1 1 1 1 1 1 1 1 1 1 1 1 1 1 1 1 0.999999 0.999997 0.999993 0.999984 0.999967 0.999936 0.999883 0.999799 0.999673 0.999493 0.99925 0.998937 0.998549 0.99809 0.997562 0.996974 0.996339 0.995666 0.994969 0.994257 0.993541 0.992827 0.992121 0.991427 0.990746 0.990082 0.989434 0.988802 0.988188 0.987592 0.987014 0.986455 0.985917 0.985917 
1.01583 1.01589 1.01591 1.01591 1.01592 1.01593 1.01593 1.01593 1.01593 1.01594 1.01594 1.01596 1.01598 1.01602 1.01607 1.01614 1.01623 1.01633 1.01645 1.01658 1.01672 1.01685 1.01698 1.0171 1.0172 1.01728 1.01734 1.01738 1.01737 1.01724 1.01685 1.01603 1.01464 1.01263 1.01018 1.0076 1.00523 1.00331 1.00192 1.00102 1.0005 1.00022 1.00009 1.00004 1.00001 1 1 1 1 1 1 1 1 1 1 1 1 1 1 1 1 1 1 1 1 1 1 1 1 1 1 1 1 1 1 1 1 1 1 1 1 1 1 1 1 1 1 1 1 1 1 1 1 1 1 0.999999 0.999997 0.999992 0.999983 0.999966 0.999935 0.999884 0.999804 0.999685 0.999518 0.999295 0.999008 0.998656 0.998238 0.997759 0.997225 0.996645 0.99603 0.995389 0.994733 0.99407 0.993407 0.99275 0.992104 0.991472 0.990855 0.990256 0.989677 0.989118 0.988581 0.988068 0.98758 0.98758 
1.01591 1.016 1.016 1.016 1.01601 1.01601 1.01601 1.01602 1.01603 1.01605 1.01607 1.01611 1.01615 1.01621 1.01628 1.01637 1.01647 1.01658 1.0167 1.01682 1.01693 1.01704 1.01714 1.01723 1.0173 1.01736 1.0174 1.01742 1.01739 1.01725 1.01686 1.01604 1.01464 1.01263 1.01018 1.0076 1.00523 1.00331 1.00192 1.00102 1.0005 1.00022 1.00009 1.00004 1.00001 1 1 1 1 1 1 1 1 1 1 1 1 1 1 1 1 1 1 1 1 1 1 1 1 1 1 1 1 1 1 1 1 1 1 1 1 1 1 1 1 1 1 1 1 1 1 1 1 1 1 0.999999 0.999999 0.999996 0.999992 0.999983 0.999966 0.999937 0.999889 0.999815 0.999708 0.999558 0.999358 0.999103 0.998791 0.998421 0.997996 0.997522 0.997005 0.996455 0.99588 0.995289 0.994689 0.994089 0.993493 0.992908 0.992336 0.99178 0.991245 0.990732 0.990243 0.989782 0.989351 0.989351 
1.01609 1.01619 1.01618 1.01617 1.01617 1.01617 1.01617 1.01619 1.01621 1.01624 1.01627 1.01632 1.01638 1.01645 1.01653 1.01662 1.01672 1.01682 1.01692 1.01702 1.01711 1.0172 1.01727 1.01733 1.01737 1.01741 1.01743 1.01744 1.0174 1.01726 1.01686 1.01604 1.01464 1.01263 1.01018 1.0076 1.00523 1.00331 1.00192 1.00102 1.0005 1.00022 1.00009 1.00004 1.00001 1 1 1 1 1 1 1 1 1 1 1 1 1 1 1 1 1 1 1 1 1 1 1 1 1 1 1 1 1 1 1 1 1 1 1 1 1 1 1 1 1 1 1 1 1 1 1 1 1 1 1 0.999999 0.999999 0.999996 0.999992 0.999983 0.999968 0.999941 0.999899 0.999833 0.999739 0.999608 0.999436 0.999216 0.998948 0.998629 0.998263 0.997854 0.997407 0.996928 0.996427 0.99591 0.995385 0.994858 0.994336 0.993824 0.993326 0.992846 0.992389 0.991957 0.991555 0.991186 0.991186 
1.01633 1.01643 1.01641 1.01639 1.01639 1.01638 1.01639 1.01641 1.01643 1.01647 1.01651 1.01657 1.01663 1.0167 1.01677 1.01686 1.01694 1.01702 1.0171 1.01718 1.01725 1.01731 1.01735 1.01739 1.01742 1.01744 1.01745 1.01745 1.01741 1.01726 1.01686 1.01604 1.01464 1.01263 1.01018 1.0076 1.00523 1.00331 1.00192 1.00102 1.0005 1.00022 1.00009 1.00004 1.00001 1 1 1 1 1 1 1 1 1 1 1 1 1 1 1 1 1 1 1 1 1 1 1 1 1 1 1 1 1 1 1 1 1 1 1 1 1 1 1 1 1 1 1 1 1 1 1 1 1 1 1 1 0.999999 0.999999 0.999997 0.999993 0.999985 0.999971 0.999948 0.999911 0.999856 0.999776 0.999667 0.999523 0.99934 0.999117 0.998852 0.998547 0.998205 0.997831 0.99743 0.997009 0.996574 0.996132 0.995689 0.995251 0.994824 0.994412 0.994021 0.993654 0.993317 0.993013 0.993013 
1.0166 1.01669 1.01666 1.01664 1.01663 1.01663 1.01664 1.01666 1.01668 1.01672 1.01676 1.01681 1.01686 1.01693 1.01699 1.01706 1.01712 1.01719 1.01724 1.0173 1.01734 1.01738 1.01741 1.01743 1.01744 1.01745 1.01746 1.01745 1.01741 1.01726 1.01686 1.01604 1.01464 1.01263 1.01018 1.0076 1.00523 1.00331 1.00192 1.00102 1.0005 1.00022 1.00009 1.00004 1.00001 1 1 1 1 1 1 1 1 1 1 1 1 1 1 1 1 1 1 1 1 1 1 1 1 1 1 1 1 1 1 1 1 1 1 1 1 1 1 1 1 1 1 1 1 1 1 1 1 1 1 1 1 1 0.999999 0.999999 0.999997 0.999993 0.999987 0.999975 0.999956 0.999926 0.99988 0.999816 0.999728 0.999612 0.999466 0.999287 0.999076 0.998832 0.998558 0.998258 0.997936 0.997598 0.997249 0.996894 0.996541 0.996194 0.995859 0.995541 0.995245 0.994975 0.994737 0.994737 
1.01685 1.01693 1.0169 1.01688 1.01687 1.01687 1.01687 1.01689 1.01691 1.01694 1.01698 1.01702 1.01707 1.01712 1.01716 1.01721 1.01726 1.0173 1.01734 1.01737 1.0174 1.01742 1.01744 1.01745 1.01746 1.01746 1.01746 1.01746 1.01741 1.01726 1.01686 1.01604 1.01464 1.01263 1.01018 1.0076 1.00523 1.00331 1.00192 1.00102 1.0005 1.00022 1.00009 1.00004 1.00001 1 1 1 1 1 1 1 1 1 1 1 1 1 1 1 1 1 1 1 1 1 1 1 1 1 1 1 1 1 1 1 1 1 1 1 1 1 1 1 1 1 1 1 1 1 1 1 1 1 1 1 1 1 1 1 0.999999 0.999997 0.999994 0.999989 0.99998 0.999964 0.999941 0.999905 0.999855 0.999787 0.999699 0.999587 0.99945 0.999288 0.999102 0.998893 0.998664 0.998419 0.998161 0.997896 0.997629 0.997365 0.997109 0.996866 0.996641 0.996437 0.996261 0.996261 
1.01706 1.01712 1.0171 1.01708 1.01707 1.01707 1.01708 1.01709 1.01711 1.01713 1.01716 1.01719 1.01722 1.01726 1.01729 1.01732 1.01735 1.01738 1.0174 1.01742 1.01743 1.01745 1.01745 1.01746 1.01746 1.01747 1.01747 1.01746 1.01741 1.01726 1.01686 1.01604 1.01464 1.01263 1.01018 1.0076 1.00523 1.00331 1.00192 1.00102 1.0005 1.00022 1.00009 1.00004 1.00001 1 1 1 1 1 1 1 1 1 1 1 1 1 1 1 1 1 1 1 1 1 1 1 1 1 1 1 1 1 1 1 1 1 1 1 1 1 1 1 1 1 1 1 1 1 1 1 1 1 1 1 1 1 1 1 1 0.999999 0.999998 0.999996 0.999991 0.999984 0.999973 0.999955 0.999929 0.999892 0.999842 0.999777 0.999696 0.999596 0.999479 0.999344 0.999193 0.999028 0.998852 0.998668 0.99848 0.998293 0.998111 0.997937 0.997776 0.997633 0.99751 0.99751 