# vtk DataFile Version 3.0
LBM simulation at step 280
ASCII
DATASET STRUCTURED_POINTS
DIMENSIONS 256 256 1
ORIGIN 0 0 0
SPACING 1 1 1
POINT_DATA 65536
SCALARS density float
LOOKUP_TABLE default
0.741907 1.08863 1.13537 1.09306 1.0848 1.09358 1.0953 1.09343 1.09278 1.09288 1.0928 1.09258 1.09243 1.09232 1.09222 1.09213 1.09205 1.09199 1.09192 1.09187 1.09182 1.09177 1.09173 1.09168 1.09164 1.09161 1.09157 1.09153 1.0915 1.09146 1.09143 1.0914 1.09137 1.09134 1.09131 1.09129 1.09126 1.09124 1.09121 1.09119 1.09116 1.09114 1.09112 1.0911 1.09107 1.09105 1.09103 1.09101 1.09099 1.09097 1.09095 1.09094 1.09092 1.0909 1.09088 1.09086 1.09085 1.09083 1.09081 1.0908 1.09078 1.09076 1.09075 1.09073 1.09072 1.0907 1.09068 1.09067 1.09065 1.09064 1.09062 1.09061 1.09059 1.09058 1.09056 1.09055 1.09053 1.09052 1.0905 1.09048 1.09047 1.09045 1.09043 1.0904 1.09037 1.09033 1.09028 1.09022 1.09014 1.09003 1.0899 1.08972 1.08951 1.08925 1.08893 1.08855 1.0881 1.08758 1.08699 1.08633 1.08561 1.08482 1.08397 1.08308 1.08214 1.08118 1.08019 1.0792 1.0782 1.07721 1.07623 1.07527 1.07433 1.07342 1.07253 1.07168 1.07084 1.07004 1.06926 1.06851 1.06777 1.06705 1.06635 1.06567 1.065 1.06434 1.06369 1.06305 1.06242 1.0618 1.06118 1.06058 1.05998 1.05938 1.05879 1.0582 1.05762 1.05705 1.05647 1.0559 1.05534 1.05478 1.05422 1.05367 1.05312 1.05258 1.05205 1.05153 1.05102 1.05053 1.05005 1.04957 1.04908 1.04855 1.04792 1.04713 1.04605 1.04453 1.04239 1.03942 1.03544 1.03031 1.024 1.01666 1.00858 1.00016 0.99187 0.984147 0.977299 0.971492 0.966748 0.962988 0.960069 0.957833 0.956125 0.95481 0.953778 0.952946 0.952251 0.951648 0.951105 0.9506 0.950119 0.949652 0.949192 0.948737 0.948283 0.947829 0.947375 0.946918 0.94646 0.945999 0.945536 0.94507 0.944601 0.944129 0.943654 0.943176 0.942693 0.942208 0.941718 0.941224 0.940725 0.940222 0.939714 0.9392 0.938682 0.938157 0.937626 0.937089 0.936545 0.935994 0.935435 0.934868 0.934292 0.933707 0.933112 0.932507 0.931891 0.931263 0.930622 0.929967 0.929298 0.928613 0.927911 0.92719 0.92645 0.925688 0.924903 0.924092 0.923253 0.922382 0.921478 0.920537 0.919553 0.918522 0.917439 0.916297 0.915087 0.9138 0.912423 0.910943 0.909342 0.907594 0.905669 0.903535 0.901138 0.898363 0.895105 0.891443 0.887005 0.879792 0.870344 0.865339 0.843627 0.689405 
1.13172 1.06503 1.06007 1.09521 1.09862 1.09309 1.09216 1.09325 1.09331 1.0929 1.09268 1.09257 1.09246 1.09233 1.09223 1.09214 1.09206 1.09199 1.09192 1.09187 1.09181 1.09177 1.09172 1.09168 1.09164 1.0916 1.09156 1.09153 1.09149 1.09146 1.09143 1.0914 1.09137 1.09134 1.09131 1.09129 1.09125 1.09123 1.0912 1.09118 1.09116 1.09114 1.09111 1.09109 1.09107 1.09105 1.09103 1.09101 1.09099 1.09097 1.09095 1.09093 1.09091 1.09089 1.09087 1.09086 1.09084 1.09082 1.09081 1.09079 1.09077 1.09076 1.09074 1.09072 1.09071 1.09069 1.09068 1.09066 1.09064 1.09063 1.09061 1.0906 1.09058 1.09057 1.09055 1.09054 1.09052 1.09051 1.09049 1.09047 1.09045 1.09043 1.09041 1.09039 1.09035 1.09031 1.09026 1.09019 1.09011 1.09 1.08986 1.08968 1.08946 1.08919 1.08886 1.08847 1.08802 1.08749 1.0869 1.08624 1.08551 1.08472 1.08388 1.08298 1.08205 1.08109 1.08011 1.07912 1.07813 1.07715 1.07617 1.07522 1.07429 1.07338 1.07249 1.07164 1.07081 1.07001 1.06923 1.06847 1.06774 1.06702 1.06632 1.06563 1.06496 1.0643 1.06365 1.06301 1.06238 1.06176 1.06114 1.06053 1.05993 1.05933 1.05874 1.05815 1.05756 1.05699 1.05641 1.05584 1.05527 1.0547 1.05414 1.05358 1.05303 1.05248 1.05194 1.05141 1.05089 1.05038 1.04987 1.04936 1.04883 1.04823 1.04753 1.04664 1.04546 1.04385 1.04164 1.03867 1.03478 1.02986 1.02387 1.01691 1.00921 1.0011 0.99302 0.985365 0.978467 0.972529 0.967614 0.963674 0.960591 0.958216 0.956396 0.954995 0.953901 0.953024 0.952298 0.951673 0.951115 0.950601 0.950113 0.949642 0.94918 0.948723 0.948268 0.947813 0.947357 0.9469 0.946441 0.94598 0.945516 0.94505 0.94458 0.944108 0.943632 0.943153 0.94267 0.942184 0.941693 0.941198 0.940699 0.940195 0.939686 0.939172 0.938652 0.938126 0.937594 0.937056 0.936511 0.935958 0.935398 0.934829 0.934252 0.933665 0.933068 0.932461 0.931843 0.931212 0.930569 0.929911 0.929239 0.928551 0.927846 0.927121 0.926377 0.925611 0.92482 0.924004 0.923158 0.922282 0.92137 0.92042 0.919427 0.918385 0.91729 0.916134 0.914908 0.913602 0.912204 0.910699 0.909066 0.907283 0.905317 0.903118 0.900636 0.897833 0.894545 0.89033 0.885295 0.880428 0.872359 0.849444 0.826873 0.826873 
1.14098 1.06917 1.07799 1.09756 1.09447 1.09188 1.09289 1.09344 1.09306 1.09278 1.09269 1.09258 1.09244 1.09232 1.09222 1.09213 1.09205 1.09198 1.09192 1.09186 1.09181 1.09176 1.09171 1.09168 1.09163 1.0916 1.09156 1.09153 1.09149 1.09146 1.09142 1.0914 1.09136 1.09134 1.0913 1.09128 1.09125 1.09123 1.0912 1.09118 1.09115 1.09113 1.0911 1.09109 1.09106 1.09104 1.09102 1.091 1.09098 1.09096 1.09094 1.09092 1.0909 1.09089 1.09087 1.09085 1.09083 1.09082 1.0908 1.09078 1.09076 1.09075 1.09073 1.09071 1.0907 1.09068 1.09067 1.09065 1.09063 1.09062 1.0906 1.09059 1.09057 1.09056 1.09054 1.09053 1.09051 1.09049 1.09048 1.09046 1.09044 1.09042 1.0904 1.09037 1.09034 1.0903 1.09024 1.09017 1.09008 1.08997 1.08983 1.08964 1.08942 1.08914 1.08881 1.08841 1.08795 1.08742 1.08683 1.08616 1.08543 1.08464 1.08379 1.0829 1.08197 1.08101 1.08004 1.07905 1.07807 1.07708 1.07612 1.07517 1.07424 1.07333 1.07245 1.0716 1.07078 1.06997 1.0692 1.06844 1.06771 1.06699 1.06629 1.0656 1.06493 1.06427 1.06361 1.06297 1.06234 1.06171 1.0611 1.06048 1.05988 1.05928 1.05868 1.05809 1.05751 1.05692 1.05634 1.05577 1.05519 1.05462 1.05406 1.05349 1.05293 1.05238 1.05183 1.05128 1.05074 1.05021 1.04967 1.04912 1.04853 1.04788 1.04711 1.04615 1.04489 1.04323 1.04101 1.03808 1.03432 1.02961 1.02391 1.01728 1.00989 1.00205 0.994115 0.986502 0.979548 0.973485 0.96841 0.964306 0.961073 0.958569 0.956647 0.955168 0.954016 0.953098 0.952343 0.951698 0.951127 0.950604 0.95011 0.949635 0.949171 0.948712 0.948256 0.947801 0.947345 0.946887 0.946428 0.945966 0.945502 0.945035 0.944565 0.944092 0.943616 0.943136 0.942653 0.942166 0.941675 0.941179 0.940679 0.940175 0.939665 0.93915 0.938629 0.938103 0.93757 0.937031 0.936485 0.935932 0.93537 0.934801 0.934222 0.933634 0.933036 0.932428 0.931808 0.931176 0.930531 0.929872 0.929198 0.928508 0.927801 0.927074 0.926327 0.925558 0.924765 0.923946 0.923098 0.922217 0.921302 0.920348 0.91935 0.918305 0.917205 0.916043 0.914811 0.9135 0.912096 0.910585 0.908947 0.907159 0.905194 0.90301 0.900533 0.897708 0.894567 0.89082 0.88569 0.880064 0.876259 0.866974 0.85116 0.85116 
1.05767 1.09358 1.10644 1.08878 1.08862 1.09394 1.09404 1.09281 1.09269 1.09284 1.09271 1.09253 1.0924 1.09231 1.09221 1.09212 1.09204 1.09197 1.09191 1.09185 1.0918 1.09175 1.0917 1.09167 1.09162 1.09159 1.09155 1.09152 1.09148 1.09145 1.09141 1.09139 1.09135 1.09133 1.09129 1.09128 1.09124 1.09122 1.09119 1.09117 1.09114 1.09113 1.0911 1.09108 1.09105 1.09104 1.09101 1.091 1.09097 1.09096 1.09093 1.09092 1.09089 1.09088 1.09086 1.09084 1.09082 1.09081 1.09079 1.09077 1.09075 1.09074 1.09072 1.09071 1.09069 1.09067 1.09066 1.09064 1.09062 1.09061 1.09059 1.09058 1.09056 1.09055 1.09053 1.09052 1.0905 1.09048 1.09047 1.09045 1.09043 1.09041 1.09039 1.09036 1.09032 1.09028 1.09022 1.09015 1.09006 1.08995 1.0898 1.08961 1.08938 1.0891 1.08876 1.08836 1.0879 1.08736 1.08676 1.08609 1.08536 1.08456 1.08372 1.08282 1.0819 1.08094 1.07997 1.07899 1.078 1.07703 1.07606 1.07511 1.07419 1.07329 1.07241 1.07156 1.07074 1.06994 1.06916 1.06841 1.06767 1.06696 1.06625 1.06557 1.06489 1.06423 1.06358 1.06293 1.0623 1.06167 1.06105 1.06044 1.05983 1.05923 1.05863 1.05804 1.05745 1.05686 1.05628 1.0557 1.05512 1.05454 1.05397 1.0534 1.05283 1.05227 1.05171 1.05115 1.05059 1.05004 1.04947 1.04889 1.04826 1.04756 1.04673 1.04571 1.04441 1.0427 1.04048 1.0376 1.03394 1.02941 1.02395 1.0176 1.0105 1.00289 0.995118 0.987564 0.980577 0.97441 0.969193 0.964935 0.961556 0.958928 0.956905 0.955348 0.954138 0.953178 0.952393 0.951729 0.951144 0.950612 0.950112 0.949634 0.949167 0.948707 0.948249 0.947793 0.947337 0.946879 0.946419 0.945957 0.945492 0.945025 0.944555 0.944082 0.943605 0.943125 0.942642 0.942154 0.941663 0.941167 0.940666 0.940161 0.939651 0.939136 0.938615 0.938088 0.937555 0.937015 0.936469 0.935915 0.935353 0.934783 0.934204 0.933615 0.933017 0.932408 0.931787 0.931155 0.930509 0.929849 0.929175 0.928484 0.927776 0.927049 0.926302 0.925532 0.924739 0.923919 0.92307 0.92219 0.921275 0.920321 0.919325 0.91828 0.917182 0.916024 0.914797 0.913492 0.912097 0.910599 0.90898 0.907218 0.905283 0.903154 0.900798 0.898089 0.89494 0.891628 0.887971 0.882118 0.875296 0.872782 0.869837 0.869837 
1.09726 1.09705 1.08948 1.08954 1.09456 1.09357 1.09235 1.09271 1.09298 1.09278 1.09257 1.09248 1.09239 1.09228 1.09218 1.0921 1.09202 1.09196 1.09189 1.09184 1.09178 1.09174 1.09169 1.09166 1.09161 1.09158 1.09154 1.09151 1.09147 1.09144 1.0914 1.09138 1.09134 1.09132 1.09129 1.09127 1.09123 1.09122 1.09118 1.09117 1.09113 1.09112 1.09109 1.09107 1.09104 1.09103 1.091 1.09099 1.09096 1.09095 1.09092 1.09091 1.09088 1.09087 1.09085 1.09084 1.09081 1.0908 1.09078 1.09076 1.09074 1.09073 1.09071 1.0907 1.09068 1.09066 1.09065 1.09063 1.09061 1.0906 1.09058 1.09057 1.09055 1.09054 1.09052 1.0905 1.09049 1.09047 1.09045 1.09044 1.09042 1.0904 1.09037 1.09034 1.09031 1.09026 1.09021 1.09014 1.09004 1.08993 1.08978 1.08959 1.08935 1.08907 1.08873 1.08832 1.08785 1.08731 1.0867 1.08603 1.08529 1.0845 1.08365 1.08276 1.08183 1.08088 1.07991 1.07893 1.07795 1.07697 1.07601 1.07507 1.07415 1.07325 1.07237 1.07153 1.0707 1.06991 1.06913 1.06838 1.06764 1.06692 1.06622 1.06553 1.06486 1.0642 1.06354 1.0629 1.06226 1.06163 1.06101 1.0604 1.05979 1.05918 1.05858 1.05798 1.05739 1.0568 1.05622 1.05563 1.05505 1.05447 1.05389 1.05331 1.05274 1.05217 1.0516 1.05103 1.05046 1.04988 1.04929 1.04868 1.04801 1.04726 1.04638 1.04531 1.04395 1.04222 1.03999 1.03715 1.03359 1.02921 1.02398 1.0179 1.01106 1.00369 0.996079 0.988591 0.981578 0.975317 0.969965 0.965559 0.96204 0.959289 0.957166 0.955531 0.954264 0.953262 0.952448 0.951763 0.951165 0.950624 0.950118 0.949636 0.949167 0.948705 0.948247 0.94779 0.947333 0.946875 0.946415 0.945952 0.945488 0.94502 0.94455 0.944077 0.9436 0.94312 0.942636 0.942148 0.941657 0.941161 0.94066 0.940155 0.939645 0.939129 0.938608 0.938081 0.937548 0.937008 0.936461 0.935907 0.935345 0.934775 0.934196 0.933608 0.933009 0.9324 0.93178 0.931148 0.930502 0.929843 0.929169 0.928479 0.927772 0.927046 0.926299 0.925531 0.924739 0.923922 0.923076 0.922198 0.921287 0.920338 0.919347 0.91831 0.91722 0.916073 0.914859 0.913572 0.912199 0.91073 0.909148 0.907439 0.905576 0.903526 0.901284 0.898844 0.896023 0.892737 0.889647 0.886485 0.881482 0.877555 0.875909 0.875909 
1.09917 1.09233 1.09036 1.09498 1.09348 1.09176 1.09272 1.09312 1.09275 1.09255 1.09253 1.09246 1.09234 1.09224 1.09215 1.09208 1.092 1.09194 1.09187 1.09182 1.09177 1.09173 1.09168 1.09165 1.0916 1.09157 1.09153 1.0915 1.09146 1.09144 1.09139 1.09137 1.09133 1.09132 1.09128 1.09126 1.09122 1.09121 1.09117 1.09116 1.09112 1.09111 1.09108 1.09107 1.09103 1.09102 1.09099 1.09098 1.09095 1.09094 1.09091 1.0909 1.09087 1.09086 1.09084 1.09083 1.0908 1.09079 1.09077 1.09076 1.09073 1.09072 1.0907 1.09069 1.09067 1.09065 1.09064 1.09062 1.0906 1.09059 1.09057 1.09056 1.09054 1.09052 1.09051 1.09049 1.09048 1.09046 1.09044 1.09042 1.0904 1.09038 1.09036 1.09033 1.09029 1.09025 1.09019 1.09012 1.09003 1.08991 1.08975 1.08956 1.08932 1.08904 1.08869 1.08828 1.08781 1.08726 1.08665 1.08598 1.08524 1.08444 1.08359 1.0827 1.08177 1.08082 1.07985 1.07887 1.07789 1.07692 1.07597 1.07503 1.07411 1.07321 1.07234 1.07149 1.07067 1.06988 1.0691 1.06835 1.06761 1.0669 1.06619 1.06551 1.06483 1.06417 1.06351 1.06287 1.06223 1.0616 1.06097 1.06036 1.05974 1.05914 1.05853 1.05794 1.05734 1.05675 1.05616 1.05557 1.05498 1.0544 1.05382 1.05323 1.05265 1.05207 1.05149 1.05091 1.05032 1.04973 1.04912 1.04847 1.04777 1.04697 1.04604 1.04492 1.04352 1.04175 1.03952 1.03672 1.03326 1.02905 1.02403 1.01819 1.01161 1.00446 0.997003 0.989583 0.982552 0.976205 0.970725 0.966176 0.962519 0.959648 0.957427 0.955716 0.954392 0.953349 0.952506 0.951801 0.951189 0.950639 0.950128 0.949642 0.949171 0.948707 0.948248 0.947791 0.947334 0.946875 0.946415 0.945953 0.945488 0.94502 0.94455 0.944076 0.9436 0.94312 0.942636 0.942148 0.941656 0.94116 0.94066 0.940155 0.939645 0.939129 0.938608 0.938081 0.937548 0.937009 0.936462 0.935909 0.935347 0.934777 0.934199 0.933611 0.933013 0.932405 0.931786 0.931154 0.93051 0.929852 0.92918 0.928491 0.927786 0.927062 0.926319 0.925554 0.924765 0.923952 0.923111 0.922239 0.921335 0.920394 0.919413 0.918387 0.917312 0.916181 0.914989 0.913727 0.912388 0.910959 0.909428 0.907783 0.906012 0.904089 0.90197 0.899686 0.897294 0.894523 0.891287 0.888518 0.885875 0.882938 0.880978 0.880978 
1.09039 1.09286 1.09432 1.09315 1.09183 1.0929 1.09311 1.0926 1.09252 1.09259 1.0925 1.09237 1.09228 1.0922 1.09212 1.09204 1.09197 1.09191 1.09185 1.0918 1.09175 1.09171 1.09167 1.09163 1.09159 1.09156 1.09152 1.09149 1.09145 1.09143 1.09138 1.09137 1.09132 1.09131 1.09127 1.09125 1.09121 1.0912 1.09116 1.09115 1.09111 1.09111 1.09107 1.09106 1.09102 1.09102 1.09098 1.09098 1.09094 1.09093 1.0909 1.0909 1.09086 1.09086 1.09083 1.09082 1.09079 1.09078 1.09076 1.09075 1.09072 1.09071 1.09069 1.09068 1.09066 1.09064 1.09062 1.09061 1.09059 1.09058 1.09056 1.09055 1.09053 1.09051 1.0905 1.09048 1.09046 1.09045 1.09043 1.09041 1.09039 1.09037 1.09035 1.09032 1.09028 1.09023 1.09018 1.0901 1.09001 1.08989 1.08973 1.08954 1.0893 1.08901 1.08866 1.08825 1.08777 1.08722 1.08661 1.08593 1.08519 1.08439 1.08354 1.08265 1.08172 1.08077 1.0798 1.07883 1.07785 1.07688 1.07593 1.07499 1.07407 1.07318 1.07231 1.07147 1.07065 1.06985 1.06908 1.06832 1.06759 1.06687 1.06617 1.06548 1.0648 1.06414 1.06348 1.06284 1.0622 1.06156 1.06094 1.06032 1.05971 1.0591 1.05849 1.05789 1.05729 1.0567 1.0561 1.05551 1.05492 1.05433 1.05374 1.05316 1.05257 1.05198 1.05139 1.0508 1.05019 1.04958 1.04894 1.04826 1.04752 1.04668 1.04571 1.04454 1.0431 1.04131 1.03909 1.03634 1.03297 1.02891 1.02409 1.01849 1.01215 1.00521 0.997897 0.990544 0.983498 0.97707 0.971469 0.966783 0.962992 0.960004 0.957687 0.955901 0.954521 0.953437 0.952566 0.951841 0.951217 0.950658 0.950142 0.949652 0.949178 0.948714 0.948254 0.947796 0.947338 0.94688 0.946419 0.945957 0.945492 0.945025 0.944554 0.944081 0.943604 0.943124 0.942641 0.942153 0.941662 0.941166 0.940666 0.940161 0.939651 0.939136 0.938615 0.938089 0.937556 0.937017 0.936471 0.935918 0.935357 0.934788 0.934211 0.933624 0.933028 0.932421 0.931803 0.931173 0.930531 0.929875 0.929205 0.928519 0.927817 0.927097 0.926357 0.925597 0.924814 0.924006 0.923172 0.922309 0.921414 0.920484 0.919516 0.918506 0.917449 0.91634 0.915174 0.913945 0.912644 0.911264 0.909795 0.908225 0.906542 0.904749 0.90282 0.900702 0.898479 0.896251 0.893722 0.891052 0.888762 0.886555 0.88475 0.88475 
1.09277 1.09305 1.09297 1.09228 1.09287 1.09304 1.0925 1.0925 1.09262 1.0925 1.09237 1.09231 1.09224 1.09216 1.09208 1.09201 1.09194 1.09189 1.09183 1.09178 1.09173 1.09169 1.09165 1.09162 1.09157 1.09155 1.0915 1.09148 1.09144 1.09142 1.09137 1.09136 1.09131 1.0913 1.09126 1.09124 1.0912 1.09119 1.09115 1.09114 1.0911 1.0911 1.09106 1.09105 1.09101 1.09101 1.09097 1.09097 1.09093 1.09093 1.09089 1.09089 1.09085 1.09085 1.09082 1.09081 1.09078 1.09077 1.09075 1.09074 1.09071 1.0907 1.09068 1.09067 1.09065 1.09063 1.09061 1.0906 1.09058 1.09057 1.09055 1.09053 1.09052 1.0905 1.09048 1.09047 1.09045 1.09044 1.09042 1.0904 1.09038 1.09036 1.09033 1.0903 1.09027 1.09022 1.09016 1.09009 1.08999 1.08987 1.08971 1.08952 1.08928 1.08898 1.08863 1.08822 1.08774 1.08719 1.08657 1.08589 1.08514 1.08434 1.08349 1.0826 1.08168 1.08073 1.07976 1.07879 1.07781 1.07685 1.07589 1.07496 1.07404 1.07315 1.07229 1.07144 1.07063 1.06983 1.06906 1.0683 1.06757 1.06685 1.06615 1.06546 1.06478 1.06411 1.06346 1.06281 1.06217 1.06154 1.06091 1.06029 1.05967 1.05906 1.05845 1.05785 1.05725 1.05665 1.05605 1.05546 1.05486 1.05427 1.05368 1.05308 1.05249 1.05189 1.05129 1.05068 1.05006 1.04942 1.04876 1.04805 1.04728 1.0464 1.04538 1.04417 1.0427 1.0409 1.03869 1.036 1.03273 1.02881 1.02418 1.0188 1.01268 1.00593 0.998764 0.991475 0.984417 0.977913 0.972195 0.967377 0.963457 0.960355 0.957943 0.956085 0.954649 0.953527 0.952627 0.951884 0.951247 0.95068 0.950158 0.949665 0.949189 0.948723 0.948263 0.947805 0.947347 0.946888 0.946428 0.945965 0.945501 0.945033 0.944563 0.94409 0.943614 0.943134 0.94265 0.942163 0.941672 0.941177 0.940677 0.940172 0.939663 0.939148 0.938628 0.938103 0.937571 0.937032 0.936487 0.935935 0.935375 0.934808 0.934231 0.933646 0.933051 0.932446 0.93183 0.931203 0.930563 0.92991 0.929243 0.928561 0.927862 0.927147 0.926412 0.925658 0.924881 0.924081 0.923256 0.922402 0.921519 0.920602 0.91965 0.918657 0.917622 0.916539 0.915403 0.91421 0.912952 0.911624 0.910219 0.908731 0.907147 0.90546 0.903689 0.90181 0.899768 0.89769 0.895645 0.893485 0.891404 0.889536 0.887927 0.887927 
1.09335 1.09266 1.09246 1.09273 1.09287 1.09248 1.09249 1.09261 1.09247 1.09236 1.09232 1.09226 1.09218 1.0921 1.09204 1.09197 1.09191 1.09186 1.0918 1.09176 1.09171 1.09168 1.09163 1.0916 1.09156 1.09153 1.09149 1.09146 1.09142 1.0914 1.09136 1.09134 1.0913 1.09129 1.09125 1.09123 1.09119 1.09118 1.09114 1.09113 1.09109 1.09109 1.09105 1.09104 1.091 1.091 1.09096 1.09096 1.09092 1.09092 1.09088 1.09088 1.09084 1.09084 1.09081 1.0908 1.09077 1.09077 1.09074 1.09073 1.0907 1.09069 1.09067 1.09066 1.09064 1.09062 1.0906 1.09059 1.09057 1.09056 1.09054 1.09052 1.09051 1.09049 1.09047 1.09046 1.09044 1.09042 1.0904 1.09039 1.09037 1.09034 1.09032 1.09029 1.09025 1.09021 1.09015 1.09007 1.08998 1.08985 1.08969 1.0895 1.08925 1.08896 1.08861 1.08819 1.08771 1.08716 1.08654 1.08585 1.08511 1.08431 1.08346 1.08256 1.08164 1.08069 1.07973 1.07875 1.07778 1.07682 1.07587 1.07494 1.07402 1.07313 1.07227 1.07143 1.07061 1.06981 1.06904 1.06829 1.06755 1.06683 1.06613 1.06544 1.06476 1.06409 1.06344 1.06279 1.06215 1.06151 1.06088 1.06026 1.05964 1.05903 1.05842 1.05781 1.05721 1.0566 1.056 1.0554 1.05481 1.05421 1.05361 1.05301 1.0524 1.0518 1.05118 1.05056 1.04993 1.04927 1.04858 1.04784 1.04704 1.04612 1.04507 1.04382 1.04233 1.04052 1.03833 1.03569 1.03252 1.02874 1.02429 1.01912 1.01321 1.00664 0.999604 0.992378 0.985309 0.978734 0.972904 0.967958 0.963913 0.960699 0.958196 0.956266 0.954778 0.953617 0.95269 0.951929 0.951279 0.950704 0.950177 0.949681 0.949203 0.948736 0.948275 0.947817 0.947359 0.9469 0.94644 0.945978 0.945513 0.945046 0.944576 0.944103 0.943627 0.943147 0.942664 0.942178 0.941687 0.941192 0.940693 0.940189 0.93968 0.939166 0.938647 0.938122 0.937591 0.937054 0.93651 0.935959 0.9354 0.934834 0.934259 0.933676 0.933083 0.93248 0.931867 0.931242 0.930605 0.929955 0.929292 0.928614 0.927921 0.92721 0.926482 0.925734 0.924965 0.924174 0.923358 0.922516 0.921645 0.920743 0.919808 0.918836 0.917823 0.916767 0.915664 0.914508 0.913296 0.912023 0.910682 0.909271 0.907787 0.906217 0.904563 0.902857 0.901075 0.899198 0.897338 0.895509 0.893699 0.892022 0.890566 0.890566 
1.09243 1.09259 1.09265 1.09265 1.09248 1.09246 1.09255 1.09243 1.09234 1.09232 1.09227 1.09219 1.09212 1.09206 1.092 1.09194 1.09188 1.09183 1.09178 1.09174 1.09169 1.09165 1.09161 1.09158 1.09154 1.09151 1.09147 1.09145 1.09141 1.09139 1.09135 1.09133 1.09129 1.09128 1.09123 1.09122 1.09118 1.09117 1.09113 1.09112 1.09108 1.09108 1.09104 1.09103 1.09099 1.09099 1.09095 1.09095 1.09091 1.09091 1.09087 1.09087 1.09083 1.09083 1.0908 1.09079 1.09076 1.09076 1.09073 1.09072 1.09069 1.09068 1.09066 1.09065 1.09062 1.09061 1.09059 1.09058 1.09056 1.09055 1.09053 1.09051 1.09049 1.09048 1.09046 1.09045 1.09043 1.09041 1.09039 1.09037 1.09035 1.09033 1.09031 1.09028 1.09024 1.09019 1.09013 1.09006 1.08996 1.08984 1.08968 1.08948 1.08924 1.08894 1.08858 1.08816 1.08768 1.08713 1.08651 1.08582 1.08508 1.08428 1.08343 1.08253 1.08161 1.08066 1.0797 1.07873 1.07776 1.0768 1.07585 1.07492 1.07401 1.07312 1.07225 1.07141 1.0706 1.0698 1.06903 1.06828 1.06754 1.06682 1.06612 1.06543 1.06475 1.06408 1.06342 1.06277 1.06212 1.06149 1.06086 1.06023 1.05961 1.059 1.05838 1.05777 1.05717 1.05656 1.05596 1.05535 1.05475 1.05415 1.05354 1.05293 1.05232 1.05171 1.05108 1.05045 1.04979 1.04912 1.04841 1.04764 1.0468 1.04585 1.04477 1.04349 1.04198 1.04017 1.03801 1.03542 1.03235 1.02871 1.02442 1.01944 1.01373 1.00733 1.00042 0.993255 0.986177 0.979533 0.973597 0.968527 0.964359 0.961037 0.958445 0.956446 0.954905 0.953707 0.952755 0.951975 0.951314 0.950731 0.950199 0.9497 0.949221 0.948753 0.948291 0.947832 0.947374 0.946915 0.946455 0.945993 0.945529 0.945062 0.944593 0.94412 0.943644 0.943165 0.942682 0.942196 0.941706 0.941211 0.940713 0.94021 0.939702 0.939189 0.93867 0.938146 0.937616 0.93708 0.936538 0.935988 0.935431 0.934867 0.934294 0.933713 0.933122 0.932522 0.931911 0.931289 0.930656 0.93001 0.929351 0.928678 0.927989 0.927285 0.926563 0.925822 0.925062 0.92428 0.923475 0.922645 0.921788 0.920902 0.919985 0.919034 0.918046 0.917018 0.915948 0.914831 0.913664 0.912444 0.911168 0.909829 0.908432 0.906975 0.905448 0.903862 0.902249 0.900595 0.898914 0.897275 0.895686 0.894172 0.892828 0.892828 
1.09245 1.09252 1.0925 1.09245 1.09242 1.09246 1.09239 1.09232 1.09231 1.09226 1.09218 1.09213 1.09207 1.09201 1.09195 1.0919 1.09185 1.0918 1.09175 1.09171 1.09167 1.09163 1.09159 1.09156 1.09152 1.0915 1.09146 1.09143 1.09139 1.09137 1.09133 1.09132 1.09128 1.09126 1.09122 1.09121 1.09117 1.09116 1.09112 1.09111 1.09107 1.09107 1.09102 1.09102 1.09098 1.09098 1.09094 1.09094 1.0909 1.0909 1.09086 1.09086 1.09082 1.09082 1.09078 1.09078 1.09075 1.09075 1.09071 1.09071 1.09068 1.09067 1.09065 1.09064 1.09061 1.0906 1.09058 1.09057 1.09055 1.09053 1.09051 1.0905 1.09048 1.09047 1.09045 1.09043 1.09042 1.0904 1.09038 1.09036 1.09034 1.09032 1.09029 1.09026 1.09023 1.09018 1.09012 1.09004 1.08995 1.08982 1.08966 1.08946 1.08922 1.08892 1.08856 1.08815 1.08766 1.08711 1.08649 1.0858 1.08505 1.08425 1.0834 1.08251 1.08159 1.08064 1.07968 1.07871 1.07774 1.07678 1.07584 1.07491 1.074 1.07311 1.07225 1.07141 1.07059 1.06979 1.06902 1.06827 1.06753 1.06681 1.06611 1.06541 1.06473 1.06406 1.0634 1.06275 1.06211 1.06147 1.06084 1.06021 1.05959 1.05897 1.05835 1.05774 1.05713 1.05652 1.05591 1.0553 1.0547 1.05409 1.05348 1.05286 1.05224 1.05162 1.05098 1.05033 1.04966 1.04897 1.04823 1.04744 1.04657 1.0456 1.04448 1.04318 1.04166 1.03985 1.03772 1.03519 1.0322 1.02869 1.02457 1.01977 1.01424 1.00801 1.00122 0.994107 0.987022 0.980313 0.974274 0.969083 0.964797 0.96137 0.95869 0.956623 0.955032 0.953797 0.95282 0.952023 0.95135 0.95076 0.950224 0.949722 0.949241 0.948772 0.948309 0.94785 0.947392 0.946934 0.946474 0.946012 0.945548 0.945082 0.944612 0.94414 0.943665 0.943186 0.942704 0.942218 0.941729 0.941235 0.940737 0.940235 0.939728 0.939216 0.938698 0.938175 0.937647 0.937112 0.936571 0.936023 0.935468 0.934905 0.934335 0.933755 0.933167 0.93257 0.931962 0.931344 0.930714 0.930073 0.929418 0.92875 0.928067 0.927369 0.926654 0.925922 0.92517 0.924398 0.923604 0.922787 0.921945 0.921076 0.920177 0.919247 0.918284 0.917285 0.916248 0.915169 0.914046 0.912878 0.911662 0.910396 0.909077 0.907712 0.906302 0.904844 0.903354 0.901855 0.900345 0.898854 0.897413 0.896035 0.894789 0.894789 
1.09245 1.09239 1.09237 1.09237 1.09237 1.09234 1.09228 1.09227 1.09223 1.09217 1.09212 1.09208 1.09202 1.09196 1.09191 1.09186 1.09181 1.09177 1.09172 1.09169 1.09164 1.09161 1.09157 1.09154 1.0915 1.09148 1.09144 1.09142 1.09138 1.09136 1.09132 1.0913 1.09126 1.09125 1.09121 1.0912 1.09116 1.09115 1.09111 1.0911 1.09106 1.09106 1.09101 1.09101 1.09097 1.09097 1.09093 1.09093 1.09089 1.09089 1.09085 1.09085 1.09081 1.09081 1.09077 1.09077 1.09074 1.09074 1.0907 1.0907 1.09067 1.09066 1.09064 1.09063 1.0906 1.09059 1.09057 1.09056 1.09054 1.09052 1.0905 1.09049 1.09047 1.09046 1.09044 1.09042 1.0904 1.09039 1.09037 1.09035 1.09033 1.09031 1.09028 1.09025 1.09021 1.09017 1.09011 1.09003 1.08993 1.08981 1.08965 1.08945 1.08921 1.08891 1.08855 1.08813 1.08764 1.08709 1.08647 1.08578 1.08504 1.08424 1.08339 1.0825 1.08157 1.08063 1.07967 1.0787 1.07774 1.07678 1.07583 1.0749 1.07399 1.07311 1.07224 1.0714 1.07059 1.06979 1.06902 1.06826 1.06753 1.06681 1.0661 1.06541 1.06473 1.06405 1.06339 1.06274 1.06209 1.06145 1.06082 1.06019 1.05956 1.05894 1.05832 1.05771 1.05709 1.05648 1.05587 1.05526 1.05464 1.05403 1.05341 1.05279 1.05216 1.05153 1.05088 1.05022 1.04953 1.04882 1.04806 1.04725 1.04635 1.04535 1.04421 1.04289 1.04136 1.03956 1.03745 1.03499 1.03209 1.0287 1.02473 1.0201 1.01474 1.00867 1.00199 0.994937 0.987845 0.981074 0.974935 0.969628 0.965227 0.961696 0.958932 0.956798 0.955158 0.953888 0.952886 0.952073 0.951389 0.950792 0.950251 0.949746 0.949263 0.948794 0.948331 0.947872 0.947414 0.946955 0.946496 0.946034 0.945571 0.945105 0.944636 0.944164 0.943689 0.943211 0.942729 0.942244 0.941755 0.941262 0.940765 0.940264 0.939758 0.939247 0.93873 0.938209 0.937682 0.937148 0.936609 0.936063 0.935509 0.934949 0.93438 0.933804 0.933218 0.932624 0.932019 0.931405 0.930779 0.930142 0.929492 0.928829 0.928153 0.927461 0.926754 0.926029 0.925287 0.924526 0.923743 0.922939 0.922112 0.921259 0.92038 0.919472 0.918534 0.917563 0.916557 0.915516 0.914436 0.913317 0.912156 0.910955 0.909713 0.908429 0.907112 0.905765 0.904392 0.903009 0.901632 0.90027 0.898946 0.897675 0.89651 0.89651 
1.09229 1.09229 1.0923 1.09228 1.09227 1.09224 1.09222 1.09219 1.09214 1.09211 1.09207 1.09202 1.09197 1.09192 1.09187 1.09183 1.09178 1.09174 1.0917 1.09166 1.09162 1.09159 1.09155 1.09152 1.09148 1.09146 1.09142 1.0914 1.09136 1.09134 1.0913 1.09129 1.09125 1.09124 1.09119 1.09119 1.09114 1.09114 1.09109 1.09109 1.09105 1.09105 1.091 1.091 1.09096 1.09096 1.09091 1.09092 1.09087 1.09088 1.09084 1.09084 1.0908 1.0908 1.09076 1.09076 1.09073 1.09072 1.09069 1.09069 1.09066 1.09065 1.09062 1.09062 1.09059 1.09058 1.09056 1.09055 1.09052 1.09051 1.09049 1.09048 1.09046 1.09044 1.09043 1.09041 1.09039 1.09038 1.09036 1.09034 1.09032 1.0903 1.09027 1.09024 1.0902 1.09016 1.0901 1.09002 1.08992 1.0898 1.08964 1.08944 1.0892 1.0889 1.08854 1.08812 1.08763 1.08708 1.08646 1.08577 1.08503 1.08423 1.08338 1.08249 1.08157 1.08062 1.07967 1.0787 1.07774 1.07678 1.07583 1.07491 1.074 1.07311 1.07225 1.07141 1.07059 1.0698 1.06902 1.06827 1.06753 1.06681 1.0661 1.0654 1.06472 1.06405 1.06338 1.06273 1.06208 1.06144 1.0608 1.06017 1.05954 1.05892 1.0583 1.05768 1.05706 1.05645 1.05583 1.05521 1.0546 1.05398 1.05335 1.05272 1.05209 1.05144 1.05078 1.05011 1.04941 1.04867 1.0479 1.04706 1.04614 1.04511 1.04395 1.04262 1.04108 1.0393 1.03722 1.03481 1.03201 1.02874 1.02491 1.02044 1.01524 1.00931 1.00274 0.995745 0.988647 0.981817 0.975582 0.970162 0.965648 0.962017 0.95917 0.956972 0.955284 0.953979 0.952953 0.952124 0.95143 0.950826 0.950281 0.949773 0.949289 0.948818 0.948355 0.947896 0.947438 0.94698 0.946521 0.946059 0.945596 0.94513 0.944662 0.944191 0.943716 0.943239 0.942758 0.942274 0.941785 0.941293 0.940797 0.940296 0.939791 0.939281 0.938766 0.938246 0.93772 0.937189 0.936651 0.936106 0.935555 0.934997 0.934431 0.933857 0.933274 0.932683 0.932082 0.931471 0.93085 0.930217 0.929573 0.928915 0.928245 0.92756 0.92686 0.926145 0.925412 0.924661 0.923891 0.9231 0.922287 0.921451 0.920591 0.919705 0.91879 0.917847 0.916873 0.915867 0.914828 0.913755 0.912647 0.911504 0.910329 0.909121 0.907885 0.906628 0.905355 0.904074 0.902799 0.901542 0.900315 0.899131 0.898035 0.898035 
1.0922 1.09221 1.09221 1.09219 1.09218 1.09216 1.09214 1.09211 1.09208 1.09205 1.092 1.09196 1.09192 1.09188 1.09183 1.09179 1.09175 1.09171 1.09167 1.09163 1.09159 1.09156 1.09153 1.0915 1.09146 1.09144 1.0914 1.09138 1.09134 1.09132 1.09129 1.09127 1.09123 1.09122 1.09118 1.09117 1.09113 1.09112 1.09108 1.09108 1.09103 1.09103 1.09099 1.09099 1.09094 1.09095 1.0909 1.09091 1.09086 1.09087 1.09082 1.09083 1.09079 1.09079 1.09075 1.09075 1.09071 1.09071 1.09068 1.09068 1.09065 1.09064 1.09061 1.0906 1.09058 1.09057 1.09055 1.09053 1.09051 1.0905 1.09048 1.09047 1.09045 1.09043 1.09041 1.0904 1.09038 1.09036 1.09035 1.09033 1.09031 1.09029 1.09026 1.09023 1.09019 1.09015 1.09009 1.09001 1.08992 1.08979 1.08963 1.08944 1.08919 1.08889 1.08854 1.08812 1.08763 1.08708 1.08646 1.08578 1.08503 1.08423 1.08338 1.08249 1.08158 1.08063 1.07967 1.07871 1.07775 1.07679 1.07585 1.07492 1.07401 1.07312 1.07226 1.07142 1.0706 1.06981 1.06903 1.06827 1.06753 1.06681 1.0661 1.06541 1.06472 1.06405 1.06338 1.06272 1.06207 1.06143 1.06079 1.06015 1.05952 1.0589 1.05827 1.05765 1.05703 1.05641 1.05579 1.05517 1.05455 1.05392 1.05329 1.05266 1.05201 1.05136 1.05069 1.05 1.04928 1.04853 1.04774 1.04688 1.04593 1.04489 1.04371 1.04236 1.04083 1.03906 1.03702 1.03467 1.03195 1.02879 1.0251 1.02078 1.01574 1.00995 1.00348 0.996532 0.98943 0.982543 0.976215 0.970686 0.966062 0.962333 0.959404 0.957143 0.955408 0.954071 0.953022 0.952177 0.951472 0.950862 0.950313 0.949803 0.949317 0.948846 0.948382 0.947923 0.947465 0.947007 0.946548 0.946088 0.945625 0.945159 0.944691 0.944221 0.943747 0.94327 0.94279 0.942306 0.941819 0.941328 0.940832 0.940333 0.939829 0.93932 0.938806 0.938287 0.937763 0.937233 0.936697 0.936155 0.935606 0.935049 0.934486 0.933915 0.933335 0.932747 0.93215 0.931543 0.930926 0.930298 0.929658 0.929007 0.928343 0.927665 0.926973 0.926266 0.925543 0.924803 0.924044 0.923267 0.922469 0.92165 0.920808 0.919943 0.919052 0.918135 0.917192 0.916219 0.915218 0.914188 0.913128 0.912039 0.910923 0.909782 0.908619 0.907439 0.906249 0.905055 0.903866 0.902693 0.901546 0.900436 0.899398 0.899398 