# vtk DataFile Version 3.0
LBM simulation at step 240
ASCII
DATASET STRUCTURED_POINTS
DIMENSIONS 128 128 1
ORIGIN 0 0 0
SPACING 1 1 1
POINT_DATA 16384
SCALARS density float
LOOKUP_TABLE default
0.958803 1.0247 1.02633 1.02292 1.02304 1.02312 1.02286 1.02261 1.02239 1.02216 1.0219 1.02162 1.02133 1.02102 1.02069 1.02035 1.01999 1.01964 1.01928 1.01892 1.01857 1.01822 1.01788 1.01754 1.01722 1.0169 1.01658 1.01627 1.01596 1.01564 1.01533 1.01502 1.0147 1.01438 1.01405 1.01371 1.01336 1.013 1.01263 1.01223 1.01181 1.01136 1.01088 1.01035 1.00978 1.00915 1.00847 1.00773 1.00693 1.00607 1.00517 1.00422 1.00323 1.00223 1.00122 1.00021 0.999211 0.998241 0.997304 0.996406 0.995547 0.99473 0.99395 0.993204 0.992485 0.991788 0.991106 0.990432 0.98976 0.989085 0.988404 0.987712 0.987008 0.986289 0.985556 0.984808 0.984046 0.98327 0.982481 0.981682 0.980873 0.980056 0.979233 0.978405 0.977574 0.976742 0.975911 0.975081 0.974254 0.973432 0.972616 0.971807 0.971006 0.970215 0.969434 0.968665 0.967908 0.967164 0.966434 0.965716 0.965012 0.96432 0.963641 0.962971 0.962311 0.961656 0.961005 0.960354 0.9597 0.959039 0.958368 0.957683 0.956984 0.956269 0.95554 0.954798 0.954046 0.953288 0.952524 0.951758 0.950972 0.950147 0.94932 0.948791 0.946817 0.945232 0.9615 0.9615 
1.02675 1.02525 1.02134 1.02252 1.02327 1.02308 1.0228 1.02258 1.02236 1.02212 1.02187 1.02159 1.0213 1.02099 1.02066 1.02032 1.01997 1.01962 1.01926 1.01891 1.01855 1.01821 1.01786 1.01753 1.0172 1.01688 1.01656 1.01625 1.01593 1.01562 1.01531 1.01499 1.01467 1.01435 1.01401 1.01367 1.01332 1.01296 1.01258 1.01219 1.01176 1.01131 1.01082 1.0103 1.00972 1.0091 1.00842 1.00769 1.0069 1.00606 1.00516 1.00423 1.00325 1.00226 1.00126 1.00025 0.999263 0.998294 0.997356 0.996453 0.995589 0.994764 0.993976 0.993221 0.992494 0.991789 0.991099 0.990418 0.98974 0.989061 0.988376 0.987682 0.986976 0.986257 0.985523 0.984776 0.984014 0.983239 0.982452 0.981655 0.980848 0.980033 0.979213 0.978388 0.97756 0.97673 0.975901 0.975074 0.974249 0.97343 0.972616 0.971809 0.97101 0.970221 0.969443 0.968675 0.96792 0.967177 0.966447 0.96573 0.965026 0.964334 0.963653 0.962983 0.96232 0.961662 0.961007 0.960352 0.959692 0.959025 0.958346 0.957654 0.956946 0.956223 0.955485 0.954734 0.953972 0.953203 0.952428 0.95165 0.950861 0.950003 0.948989 0.948181 0.9486 0.949379 0.947131 0.947131 
1.03401 1.02204 1.02135 1.02379 1.02331 1.02279 1.02269 1.02256 1.02234 1.0221 1.02184 1.02157 1.02129 1.02098 1.02065 1.02032 1.01997 1.01962 1.01927 1.01891 1.01856 1.01821 1.01787 1.01754 1.01721 1.01688 1.01656 1.01625 1.01593 1.01562 1.0153 1.01498 1.01466 1.01433 1.014 1.01366 1.0133 1.01293 1.01255 1.01215 1.01172 1.01127 1.01078 1.01025 1.00968 1.00906 1.00838 1.00766 1.00688 1.00605 1.00517 1.00424 1.00329 1.00231 1.00131 1.00032 0.999333 0.998365 0.997424 0.996516 0.995643 0.994807 0.994007 0.993238 0.992498 0.991779 0.991077 0.990385 0.989698 0.989011 0.98832 0.98762 0.986911 0.986189 0.985455 0.984707 0.983946 0.983173 0.982389 0.981595 0.980792 0.979981 0.979165 0.978345 0.977522 0.976698 0.975874 0.975052 0.974233 0.973419 0.972611 0.971809 0.971016 0.970231 0.969457 0.968694 0.967943 0.967204 0.966478 0.965764 0.965062 0.964373 0.963693 0.963024 0.962361 0.961703 0.961046 0.960388 0.959725 0.959053 0.958369 0.957671 0.956956 0.956226 0.95548 0.954721 0.953952 0.953177 0.952394 0.95159 0.950773 0.949997 0.949241 0.948249 0.947529 0.945535 0.939005 0.939005 
1.01874 1.0236 1.02558 1.02318 1.02245 1.02285 1.02281 1.02252 1.02229 1.02208 1.02184 1.02157 1.02129 1.02098 1.02067 1.02034 1.01999 1.01965 1.01929 1.01894 1.01859 1.01825 1.0179 1.01757 1.01724 1.01691 1.01659 1.01627 1.01595 1.01564 1.01532 1.015 1.01467 1.01434 1.014 1.01366 1.0133 1.01292 1.01254 1.01213 1.01169 1.01123 1.01074 1.01021 1.00963 1.00901 1.00834 1.00762 1.00685 1.00603 1.00517 1.00426 1.00332 1.00236 1.00138 1.0004 0.999416 0.998451 0.997508 0.996592 0.995709 0.994859 0.994042 0.993256 0.992497 0.991761 0.991042 0.990335 0.989634 0.988935 0.988234 0.987527 0.986812 0.986086 0.98535 0.984602 0.983842 0.983072 0.982291 0.981501 0.980703 0.979899 0.97909 0.978277 0.977461 0.976645 0.97583 0.975016 0.974205 0.973399 0.972599 0.971806 0.97102 0.970244 0.969477 0.968721 0.967977 0.967244 0.966524 0.965816 0.965119 0.964434 0.963758 0.963091 0.962431 0.961774 0.961119 0.96046 0.959796 0.959122 0.958435 0.957732 0.957013 0.956278 0.955528 0.954765 0.953991 0.95321 0.952426 0.951642 0.95083 0.949967 0.949183 0.948409 0.947254 0.945157 0.941043 0.941043 
1.02292 1.0241 1.02317 1.02268 1.02317 1.02297 1.02261 1.02245 1.0223 1.02209 1.02184 1.02158 1.0213 1.02101 1.02069 1.02037 1.02003 1.01969 1.01934 1.019 1.01865 1.0183 1.01796 1.01762 1.01729 1.01697 1.01664 1.01632 1.016 1.01568 1.01536 1.01504 1.01471 1.01437 1.01403 1.01368 1.01331 1.01293 1.01254 1.01212 1.01168 1.01121 1.01071 1.01017 1.00959 1.00897 1.0083 1.00759 1.00682 1.00602 1.00517 1.00428 1.00336 1.00242 1.00145 1.00048 0.999513 0.998551 0.997606 0.996683 0.995787 0.99492 0.994084 0.993276 0.992495 0.991736 0.990995 0.990268 0.98955 0.988835 0.988121 0.987404 0.986681 0.98595 0.985211 0.984462 0.983703 0.982935 0.982159 0.981374 0.980583 0.979787 0.978986 0.978182 0.977377 0.976571 0.975766 0.974963 0.974163 0.973368 0.972579 0.971796 0.971021 0.970255 0.969499 0.968753 0.968018 0.967294 0.966582 0.965882 0.965193 0.964514 0.963844 0.963183 0.962527 0.961874 0.961221 0.960564 0.959901 0.959227 0.958539 0.957836 0.957115 0.956378 0.955626 0.954862 0.95409 0.953312 0.952526 0.951739 0.950961 0.950161 0.949315 0.948368 0.94691 0.945655 0.944686 0.944686 
1.02381 1.02324 1.02277 1.02335 1.02313 1.02269 1.02261 1.02252 1.0223 1.02208 1.02185 1.02161 1.02134 1.02105 1.02074 1.02042 1.02009 1.01976 1.01942 1.01907 1.01873 1.01838 1.01804 1.01771 1.01737 1.01704 1.01672 1.01639 1.01607 1.01575 1.01542 1.0151 1.01476 1.01442 1.01408 1.01372 1.01335 1.01296 1.01255 1.01212 1.01167 1.01119 1.01068 1.01013 1.00955 1.00892 1.00826 1.00755 1.0068 1.006 1.00517 1.00431 1.00341 1.00248 1.00154 1.00058 0.999624 0.998666 0.997719 0.996788 0.995878 0.994992 0.994133 0.9933 0.992492 0.991706 0.99094 0.990189 0.989449 0.988716 0.987986 0.987256 0.986523 0.985786 0.985042 0.984291 0.983533 0.982768 0.981996 0.981217 0.980434 0.979646 0.978855 0.978062 0.977268 0.976474 0.975681 0.974891 0.974105 0.973323 0.972547 0.971777 0.971015 0.970262 0.969518 0.968784 0.968061 0.967349 0.966647 0.965957 0.965278 0.964608 0.963947 0.963292 0.962643 0.961996 0.961348 0.960695 0.960035 0.959364 0.958678 0.957976 0.957256 0.95652 0.95577 0.955009 0.95424 0.953469 0.952699 0.951923 0.951144 0.950367 0.94954 0.948674 0.947595 0.946576 0.946055 0.946055 
1.02232 1.02314 1.02331 1.02312 1.02279 1.02278 1.0227 1.02248 1.02229 1.02211 1.02189 1.02164 1.02138 1.0211 1.02081 1.0205 1.02017 1.01985 1.01951 1.01917 1.01883 1.01849 1.01815 1.01781 1.01748 1.01715 1.01682 1.01649 1.01616 1.01584 1.01551 1.01518 1.01484 1.0145 1.01414 1.01378 1.0134 1.013 1.01258 1.01214 1.01168 1.01118 1.01066 1.0101 1.00951 1.00888 1.00822 1.00751 1.00677 1.00599 1.00518 1.00434 1.00346 1.00256 1.00164 1.0007 0.999749 0.998797 0.997848 0.996908 0.995982 0.995076 0.994191 0.99333 0.992492 0.991677 0.990881 0.990103 0.989338 0.988583 0.987834 0.987089 0.986344 0.985598 0.984848 0.984095 0.983337 0.982573 0.981805 0.981033 0.980257 0.979479 0.978698 0.977916 0.977135 0.976354 0.975575 0.974799 0.974027 0.97326 0.972499 0.971744 0.970997 0.970259 0.969529 0.96881 0.9681 0.967402 0.966713 0.966036 0.965368 0.964709 0.964058 0.963413 0.962773 0.962134 0.961493 0.960847 0.960192 0.959525 0.958844 0.958145 0.957429 0.956697 0.955951 0.955196 0.954435 0.953672 0.952914 0.952162 0.951409 0.950655 0.949853 0.949032 0.948289 0.947489 0.946807 0.946807 
1.0225 1.02312 1.0231 1.02292 1.02289 1.02283 1.02264 1.02248 1.02233 1.02214 1.02193 1.02169 1.02145 1.02118 1.02089 1.02059 1.02027 1.01995 1.01962 1.01929 1.01895 1.01861 1.01827 1.01794 1.0176 1.01727 1.01694 1.01661 1.01628 1.01595 1.01562 1.01528 1.01494 1.01459 1.01423 1.01385 1.01346 1.01305 1.01262 1.01217 1.01169 1.01118 1.01065 1.01008 1.00948 1.00885 1.00818 1.00748 1.00675 1.00599 1.0052 1.00438 1.00353 1.00265 1.00175 1.00083 0.99989 0.998943 0.997992 0.997043 0.996102 0.995173 0.994262 0.99337 0.9925 0.991651 0.990824 0.990015 0.989222 0.988442 0.987672 0.986909 0.98615 0.985393 0.984637 0.983879 0.983119 0.982357 0.981593 0.980826 0.980057 0.979288 0.978517 0.977747 0.976978 0.976211 0.975446 0.974685 0.973929 0.973178 0.972432 0.971694 0.970963 0.970241 0.969528 0.968824 0.96813 0.967447 0.966773 0.96611 0.965455 0.96481 0.964171 0.963538 0.962908 0.962279 0.961648 0.96101 0.960363 0.959704 0.959028 0.958336 0.957626 0.956899 0.95616 0.955412 0.954661 0.953912 0.953169 0.952435 0.951706 0.950985 0.950268 0.949528 0.948852 0.948198 0.947542 0.947542 
1.02262 1.02303 1.02297 1.02296 1.02292 1.02277 1.02265 1.02253 1.02237 1.02218 1.02198 1.02177 1.02152 1.02126 1.02098 1.02069 1.02039 1.02007 1.01975 1.01943 1.01909 1.01876 1.01842 1.01809 1.01776 1.01742 1.01709 1.01676 1.01643 1.01609 1.01575 1.01541 1.01506 1.0147 1.01433 1.01395 1.01355 1.01312 1.01268 1.01221 1.01172 1.0112 1.01065 1.01007 1.00946 1.00883 1.00816 1.00747 1.00675 1.00601 1.00523 1.00443 1.00361 1.00275 1.00187 1.00097 1.00005 0.999107 0.998155 0.997197 0.996239 0.995288 0.994348 0.993424 0.99252 0.991636 0.990774 0.989932 0.989109 0.988301 0.987508 0.986725 0.98595 0.98518 0.984414 0.98365 0.982888 0.982125 0.981363 0.980601 0.979838 0.979077 0.978316 0.977557 0.9768 0.976046 0.975295 0.974549 0.973808 0.973073 0.972344 0.971623 0.970909 0.970204 0.969508 0.968821 0.968145 0.967478 0.96682 0.966173 0.965534 0.964903 0.964278 0.963659 0.963042 0.962424 0.961804 0.961177 0.96054 0.959889 0.959222 0.958537 0.957835 0.957116 0.956385 0.955647 0.954907 0.954172 0.953446 0.952733 0.952033 0.95134 0.950673 0.950019 0.949372 0.948786 0.948231 0.948231 
1.02247 1.02301 1.023 1.02296 1.02288 1.02278 1.0227 1.02256 1.02241 1.02224 1.02206 1.02184 1.02161 1.02136 1.0211 1.02081 1.02052 1.02021 1.0199 1.01958 1.01925 1.01893 1.01859 1.01826 1.01793 1.0176 1.01726 1.01693 1.01659 1.01625 1.01591 1.01556 1.01521 1.01484 1.01446 1.01406 1.01365 1.01321 1.01275 1.01227 1.01176 1.01122 1.01066 1.01007 1.00946 1.00882 1.00816 1.00747 1.00677 1.00604 1.00529 1.00451 1.00371 1.00288 1.00202 1.00114 1.00022 0.99929 0.998337 0.99737 0.996396 0.995421 0.994453 0.993497 0.992557 0.991636 0.990738 0.989861 0.989005 0.988168 0.987348 0.986543 0.985749 0.984965 0.984188 0.983416 0.982648 0.981884 0.981122 0.980362 0.979604 0.978849 0.978097 0.977347 0.976601 0.975859 0.975122 0.97439 0.973664 0.972945 0.972233 0.971528 0.970832 0.970144 0.969466 0.968797 0.968138 0.967489 0.966849 0.966218 0.965596 0.964981 0.964372 0.963767 0.963164 0.962561 0.961953 0.961339 0.960713 0.960073 0.959416 0.95874 0.958047 0.957338 0.956616 0.955889 0.955161 0.95444 0.953731 0.953037 0.952363 0.951706 0.951067 0.950459 0.949861 0.949301 0.948787 0.948787 
1.02249 1.02302 1.023 1.02295 1.02289 1.02283 1.02273 1.02261 1.02247 1.02232 1.02214 1.02194 1.02172 1.02148 1.02122 1.02095 1.02066 1.02037 1.02006 1.01975 1.01943 1.01911 1.01878 1.01845 1.01812 1.01779 1.01746 1.01712 1.01678 1.01644 1.01609 1.01574 1.01537 1.01499 1.0146 1.01419 1.01376 1.01331 1.01284 1.01234 1.01181 1.01127 1.01069 1.01009 1.00947 1.00884 1.00818 1.0075 1.00681 1.0061 1.00536 1.00461 1.00383 1.00302 1.00219 1.00132 1.00042 0.999494 0.99854 0.997564 0.996574 0.995577 0.99458 0.993591 0.992615 0.991657 0.99072 0.989807 0.988916 0.988048 0.9872 0.98637 0.985556 0.984755 0.983964 0.983182 0.982407 0.981639 0.980875 0.980116 0.979361 0.97861 0.977863 0.977122 0.976385 0.975654 0.974929 0.97421 0.973498 0.972793 0.972096 0.971408 0.970729 0.970059 0.969398 0.968748 0.968107 0.967475 0.966853 0.96624 0.965635 0.965037 0.964445 0.963857 0.96327 0.962681 0.962088 0.961487 0.960874 0.960246 0.9596 0.958936 0.958253 0.957553 0.956843 0.956126 0.955411 0.954704 0.95401 0.953335 0.952681 0.95205 0.951438 0.950852 0.950291 0.94975 0.949242 0.949242 
1.02253 1.02304 1.02302 1.02298 1.02293 1.02286 1.02277 1.02267 1.02255 1.0224 1.02223 1.02204 1.02183 1.0216 1.02136 1.0211 1.02082 1.02054 1.02024 1.01994 1.01963 1.01931 1.01899 1.01867 1.01834 1.01801 1.01767 1.01734 1.01699 1.01665 1.01629 1.01593 1.01555 1.01517 1.01476 1.01434 1.0139 1.01343 1.01294 1.01243 1.01189 1.01133 1.01074 1.01014 1.00952 1.00888 1.00822 1.00756 1.00688 1.00618 1.00547 1.00474 1.00398 1.0032 1.00238 1.00153 1.00064 0.999721 0.998765 0.997781 0.996775 0.995756 0.994731 0.993709 0.992697 0.991701 0.990726 0.989775 0.988849 0.987947 0.987069 0.986213 0.985376 0.984556 0.983749 0.982955 0.982171 0.981395 0.980627 0.979866 0.979111 0.978363 0.97762 0.976884 0.976155 0.975432 0.974717 0.974009 0.973309 0.972618 0.971936 0.971263 0.9706 0.969947 0.969303 0.96867 0.968047 0.967434 0.96683 0.966236 0.965649 0.965068 0.964494 0.963922 0.963352 0.962779 0.962202 0.961615 0.961016 0.960401 0.959768 0.959115 0.958443 0.957754 0.957055 0.956349 0.955646 0.954951 0.954272 0.953612 0.952975 0.952362 0.951772 0.951202 0.950657 0.95013 0.949623 0.949623 
1.02256 1.02307 1.02306 1.02303 1.02298 1.02292 1.02284 1.02274 1.02263 1.02249 1.02233 1.02215 1.02195 1.02174 1.0215 1.02125 1.02099 1.02072 1.02043 1.02014 1.01984 1.01953 1.01922 1.0189 1.01857 1.01824 1.01791 1.01757 1.01723 1.01687 1.01651 1.01614 1.01576 1.01536 1.01494 1.0145 1.01404 1.01356 1.01306 1.01253 1.01198 1.01141 1.01082 1.01021 1.00958 1.00895 1.00831 1.00765 1.00698 1.00631 1.00561 1.0049 1.00417 1.0034 1.0026 1.00177 1.00089 0.99997 0.999012 0.99802 0.996999 0.995958 0.994906 0.993852 0.992804 0.991771 0.990757 0.989768 0.988805 0.987869 0.98696 0.986076 0.985214 0.984372 0.983548 0.982739 0.981943 0.981158 0.980383 0.979618 0.978861 0.978112 0.97737 0.976637 0.975913 0.975196 0.974489 0.97379 0.973101 0.972421 0.971752 0.971093 0.970445 0.969808 0.969181 0.968565 0.96796 0.967364 0.966779 0.966202 0.965633 0.965071 0.964514 0.96396 0.963406 0.96285 0.962289 0.961717 0.961133 0.960531 0.959911 0.95927 0.95861 0.957932 0.957243 0.956548 0.955856 0.955173 0.954505 0.953859 0.953235 0.952635 0.952058 0.951501 0.950964 0.950444 0.949938 0.949938 
1.02261 1.02313 1.02311 1.02308 1.02304 1.02299 1.02292 1.02283 1.02272 1.02259 1.02244 1.02227 1.02209 1.02188 1.02166 1.02142 1.02117 1.02091 1.02063 1.02035 1.02006 1.01976 1.01946 1.01914 1.01882 1.0185 1.01816 1.01782 1.01748 1.01712 1.01675 1.01637 1.01598 1.01556 1.01513 1.01468 1.01421 1.01371 1.01319 1.01265 1.01209 1.01151 1.01091 1.01031 1.00969 1.00906 1.00842 1.00778 1.00713 1.00647 1.00579 1.0051 1.00438 1.00364 1.00285 1.00203 1.00116 1.00024 0.999281 0.99828 0.997245 0.996184 0.995105 0.99402 0.992938 0.991867 0.990816 0.989788 0.988788 0.987817 0.986875 0.985962 0.985073 0.984209 0.983364 0.982538 0.981728 0.980932 0.980148 0.979375 0.978613 0.977861 0.977118 0.976386 0.975663 0.97495 0.974248 0.973556 0.972875 0.972206 0.971548 0.970901 0.970267 0.969644 0.969032 0.968433 0.967844 0.967266 0.966697 0.966138 0.965587 0.965043 0.964503 0.963967 0.963431 0.962891 0.962346 0.96179 0.96122 0.960633 0.960025 0.959396 0.958747 0.95808 0.957401 0.956717 0.956034 0.955361 0.954704 0.954067 0.953454 0.952863 0.952295 0.951746 0.951214 0.950696 0.95019 0.95019 
1.02268 1.0232 1.02318 1.02316 1.02312 1.02307 1.023 1.02292 1.02282 1.0227 1.02256 1.02241 1.02223 1.02203 1.02182 1.0216 1.02136 1.02111 1.02085 1.02058 1.0203 1.02001 1.01971 1.01941 1.01909 1.01877 1.01844 1.01809 1.01774 1.01738 1.017 1.01661 1.0162 1.01578 1.01533 1.01487 1.01438 1.01387 1.01334 1.01279 1.01222 1.01164 1.01104 1.01044 1.00982 1.0092 1.00858 1.00795 1.00731 1.00667 1.00601 1.00533 1.00463 1.0039 1.00313 1.00231 1.00145 1.00053 0.999568 0.998559 0.997509 0.996428 0.995325 0.99421 0.993095 0.991988 0.990899 0.989834 0.988797 0.98779 0.986815 0.985871 0.984955 0.984066 0.9832 0.982355 0.981529 0.980719 0.979924 0.979141 0.978372 0.977614 0.976867 0.976133 0.975409 0.974698 0.973998 0.973311 0.972636 0.971975 0.971326 0.97069 0.970067 0.969457 0.96886 0.968275 0.967702 0.96714 0.966588 0.966046 0.965512 0.964985 0.964463 0.963944 0.963424 0.962901 0.962372 0.961831 0.961275 0.960701 0.960106 0.959489 0.95885 0.958194 0.957524 0.956849 0.956175 0.955511 0.954862 0.954233 0.953627 0.953044 0.952481 0.951936 0.951407 0.950889 0.950382 0.950382 
1.02277 1.02328 1.02327 1.02324 1.02321 1.02316 1.0231 1.02303 1.02294 1.02283 1.0227 1.02255 1.02238 1.0222 1.022 1.02179 1.02156 1.02132 1.02107 1.02082 1.02055 1.02027 1.01998 1.01968 1.01937 1.01905 1.01872 1.01838 1.01802 1.01765 1.01726 1.01686 1.01644 1.016 1.01554 1.01506 1.01456 1.01404 1.0135 1.01295 1.01237 1.01179 1.0112 1.0106 1.00999 1.00938 1.00877 1.00816 1.00754 1.00691 1.00626 1.0056 1.00491 1.00419 1.00342 1.00261 1.00175 1.00084 0.999869 0.99885 0.997787 0.996687 0.995561 0.994418 0.993271 0.99213 0.991004 0.989902 0.988828 0.987787 0.986778 0.985803 0.984859 0.983944 0.983056 0.982191 0.981347 0.980521 0.979712 0.978919 0.978139 0.977373 0.976621 0.975881 0.975155 0.974442 0.973743 0.973058 0.972387 0.971731 0.971089 0.970462 0.96985 0.969251 0.968667 0.968095 0.967537 0.96699 0.966454 0.965928 0.96541 0.9649 0.964394 0.963891 0.963387 0.96288 0.962366 0.961839 0.961297 0.960736 0.960152 0.959546 0.958917 0.95827 0.957609 0.956941 0.956275 0.955618 0.954976 0.954354 0.953753 0.953174 0.952615 0.952073 0.951545 0.951028 0.950518 0.950518 
1.02287 1.02338 1.02337 1.02334 1.02331 1.02327 1.02322 1.02315 1.02306 1.02296 1.02284 1.0227 1.02254 1.02237 1.02218 1.02199 1.02177 1.02155 1.02131 1.02107 1.02081 1.02054 1.02026 1.01997 1.01966 1.01934 1.01901 1.01866 1.0183 1.01792 1.01752 1.01711 1.01668 1.01623 1.01575 1.01526 1.01475 1.01422 1.01368 1.01312 1.01254 1.01196 1.01138 1.01079 1.01019 1.0096 1.009 1.0084 1.0078 1.00718 1.00655 1.00589 1.00521 1.0045 1.00374 1.00293 1.00207 1.00115 1.00018 0.999149 0.998072 0.996954 0.995805 0.994636 0.993459 0.992285 0.991125 0.989987 0.988878 0.987802 0.986761 0.985754 0.984782 0.983841 0.982929 0.982043 0.981181 0.980338 0.979515 0.978708 0.977917 0.977141 0.97638 0.975634 0.974903 0.974187 0.973486 0.972801 0.972132 0.97148 0.970843 0.970223 0.969619 0.96903 0.968457 0.967898 0.967353 0.96682 0.966298 0.965787 0.965285 0.964789 0.964299 0.963811 0.963322 0.96283 0.962329 0.961816 0.961287 0.960737 0.960164 0.959567 0.958947 0.958307 0.957654 0.956993 0.956333 0.955682 0.955046 0.954428 0.953832 0.953257 0.952701 0.952161 0.951633 0.951115 0.950604 0.950604 
1.02299 1.0235 1.02348 1.02346 1.02343 1.02339 1.02334 1.02328 1.0232 1.02311 1.02299 1.02286 1.02272 1.02256 1.02238 1.02219 1.02199 1.02178 1.02156 1.02133 1.02108 1.02082 1.02055 1.02026 1.01996 1.01964 1.0193 1.01895 1.01858 1.01819 1.01778 1.01736 1.01691 1.01645 1.01596 1.01546 1.01494 1.01441 1.01386 1.0133 1.01273 1.01216 1.01158 1.01101 1.01043 1.00985 1.00927 1.00868 1.00809 1.00748 1.00686 1.00621 1.00553 1.00482 1.00406 1.00325 1.00239 1.00146 1.00048 0.999445 0.998355 0.997221 0.996051 0.994857 0.993652 0.992448 0.991255 0.990083 0.98894 0.98783 0.986756 0.98572 0.984719 0.983753 0.982818 0.98191 0.981028 0.980169 0.97933 0.978509 0.977705 0.976919 0.976148 0.975393 0.974655 0.973934 0.97323 0.972543 0.971874 0.971224 0.970591 0.969976 0.969379 0.968799 0.968235 0.967687 0.967154 0.966633 0.966125 0.965627 0.965139 0.964658 0.964181 0.963707 0.963232 0.962753 0.962265 0.961764 0.961245 0.960705 0.960142 0.959553 0.95894 0.958308 0.95766 0.957005 0.95635 0.955704 0.955072 0.954459 0.953867 0.953295 0.952741 0.952202 0.951675 0.951156 0.950644 0.950644 
1.02313 1.02363 1.02361 1.02359 1.02357 1.02353 1.02348 1.02343 1.02335 1.02326 1.02316 1.02304 1.0229 1.02275 1.02259 1.02242 1.02223 1.02203 1.02182 1.02159 1.02136 1.02111 1.02084 1.02055 1.02025 1.01993 1.01959 1.01923 1.01885 1.01845 1.01803 1.01759 1.01713 1.01665 1.01616 1.01565 1.01513 1.01459 1.01405 1.01349 1.01294 1.01237 1.01181 1.01125 1.01069 1.01012 1.00955 1.00898 1.0084 1.0078 1.00718 1.00654 1.00586 1.00514 1.00438 1.00357 1.0027 1.00177 1.00078 0.999732 0.998629 0.997478 0.996289 0.995072 0.993841 0.992608 0.991384 0.99018 0.989004 0.987863 0.986758 0.985693 0.984665 0.983673 0.982715 0.981788 0.980887 0.98001 0.979155 0.97832 0.977504 0.976705 0.975924 0.97516 0.974414 0.973686 0.972977 0.972287 0.971617 0.970967 0.970336 0.969725 0.969134 0.968561 0.968006 0.967467 0.966944 0.966435 0.965939 0.965454 0.964978 0.964509 0.964045 0.963584 0.963121 0.962653 0.962176 0.961685 0.961175 0.960644 0.960088 0.959506 0.9589 0.958273 0.95763 0.95698 0.956329 0.955687 0.95506 0.95445 0.953861 0.953292 0.95274 0.952202 0.951676 0.951158 0.950646 0.950646 
1.02328 1.02378 1.02376 1.02374 1.02372 1.02368 1.02364 1.02359 1.02352 1.02344 1.02334 1.02323 1.0231 1.02296 1.02281 1.02265 1.02247 1.02228 1.02208 1.02187 1.02164 1.02139 1.02113 1.02084 1.02054 1.02021 1.01986 1.01949 1.0191 1.01869 1.01825 1.0178 1.01733 1.01685 1.01635 1.01583 1.01531 1.01478 1.01424 1.0137 1.01315 1.0126 1.01206 1.01151 1.01097 1.01042 1.00986 1.0093 1.00872 1.00813 1.00751 1.00687 1.00619 1.00547 1.0047 1.00388 1.003 1.00206 1.00106 1 0.998884 0.997717 0.996509 0.995272 0.994016 0.992756 0.991504 0.99027 0.989064 0.987892 0.986758 0.985665 0.984611 0.983596 0.982617 0.981669 0.980751 0.979858 0.978988 0.978139 0.97731 0.9765 0.975707 0.974934 0.974179 0.973444 0.972729 0.972036 0.971363 0.970712 0.970082 0.969474 0.968887 0.96832 0.967772 0.967242 0.966728 0.966229 0.965744 0.965269 0.964805 0.964347 0.963895 0.963444 0.962991 0.962533 0.962065 0.961583 0.961081 0.960557 0.960007 0.95943 0.958829 0.958206 0.957567 0.95692 0.956274 0.955636 0.955012 0.954406 0.95382 0.953253 0.952704 0.952168 0.951643 0.951126 0.950614 0.950614 
1.02345 1.02394 1.02393 1.02391 1.02388 1.02385 1.02381 1.02376 1.0237 1.02363 1.02354 1.02343 1.02332 1.02319 1.02304 1.02289 1.02272 1.02255 1.02235 1.02214 1.02192 1.02167 1.02141 1.02112 1.02081 1.02047 1.02011 1.01973 1.01933 1.0189 1.01845 1.01799 1.01751 1.01702 1.01652 1.016 1.01548 1.01496 1.01443 1.0139 1.01338 1.01285 1.01232 1.01179 1.01126 1.01073 1.01018 1.00963 1.00906 1.00846 1.00785 1.0072 1.00651 1.00578 1.005 1.00417 1.00328 1.00233 1.00132 1.00024 0.999114 0.997931 0.996706 0.995448 0.99417 0.992885 0.991606 0.990344 0.989109 0.987909 0.986748 0.985628 0.984551 0.983514 0.982514 0.981549 0.980614 0.979707 0.978823 0.977962 0.977121 0.9763 0.975498 0.974715 0.973952 0.973209 0.972488 0.97179 0.971114 0.970461 0.969832 0.969226 0.968642 0.96808 0.967538 0.967016 0.96651 0.96602 0.965544 0.965079 0.964624 0.964176 0.963733 0.963291 0.962848 0.962398 0.961937 0.961461 0.960965 0.960446 0.959901 0.959328 0.95873 0.958111 0.957476 0.956832 0.956189 0.955554 0.954934 0.954332 0.953749 0.953186 0.952639 0.952106 0.951583 0.951067 0.950556 0.950556 
1.02364 1.02412 1.02411 1.02409 1.02406 1.02404 1.024 1.02396 1.0239 1.02383 1.02375 1.02365 1.02354 1.02342 1.02329 1.02314 1.02298 1.02281 1.02262 1.02241 1.02219 1.02194 1.02167 1.02138 1.02105 1.02071 1.02034 1.01994 1.01952 1.01908 1.01863 1.01815 1.01767 1.01717 1.01667 1.01616 1.01565 1.01514 1.01463 1.01412 1.01361 1.0131 1.01259 1.01208 1.01156 1.01104 1.01051 1.00996 1.00939 1.00879 1.00817 1.00751 1.00682 1.00607 1.00528 1.00444 1.00353 1.00257 1.00154 1.00046 0.999312 0.998114 0.996871 0.995594 0.994294 0.992986 0.991681 0.990393 0.989132 0.987905 0.986719 0.985575 0.984476 0.983419 0.982401 0.98142 0.980471 0.979551 0.978656 0.977784 0.976933 0.976103 0.975292 0.9745 0.97373 0.97298 0.972254 0.97155 0.970871 0.970217 0.969587 0.968982 0.968401 0.967843 0.967307 0.96679 0.966292 0.96581 0.965342 0.964886 0.964439 0.963999 0.963564 0.96313 0.962693 0.962249 0.961794 0.961323 0.960832 0.960316 0.959774 0.959205 0.95861 0.957993 0.95736 0.95672 0.95608 0.955449 0.954832 0.954233 0.953655 0.953095 0.952552 0.952022 0.951501 0.950987 0.950477 0.950477 
1.02384 1.02432 1.0243 1.02429 1.02426 1.02424 1.02421 1.02417 1.02412 1.02405 1.02398 1.02389 1.02379 1.02367 1.02355 1.02341 1.02325 1.02308 1.02289 1.02268 1.02245 1.02219 1.02191 1.02161 1.02127 1.02091 1.02053 1.02012 1.01968 1.01923 1.01877 1.01829 1.0178 1.0173 1.01681 1.01631 1.01581 1.01532 1.01483 1.01434 1.01385 1.01336 1.01287 1.01238 1.01187 1.01136 1.01083 1.01028 1.00971 1.00911 1.00848 1.00781 1.0071 1.00634 1.00554 1.00468 1.00376 1.00278 1.00174 1.00064 0.999475 0.998261 0.997001 0.995705 0.994385 0.993054 0.991725 0.990413 0.989126 0.987874 0.986664 0.985499 0.984379 0.983304 0.982271 0.981275 0.980315 0.979385 0.978481 0.977601 0.976743 0.975905 0.975087 0.974289 0.973512 0.972757 0.972025 0.971317 0.970635 0.969979 0.969349 0.968745 0.968166 0.967611 0.96708 0.966569 0.966077 0.965601 0.96514 0.964691 0.964252 0.963819 0.96339 0.962962 0.96253 0.962091 0.96164 0.961172 0.960684 0.960171 0.959631 0.959063 0.95847 0.957855 0.957226 0.956588 0.955952 0.955324 0.954711 0.954117 0.953543 0.952987 0.952448 0.951921 0.951403 0.950891 0.950382 0.950382 
1.02407 1.02453 1.02452 1.0245 1.02448 1.02446 1.02443 1.02439 1.02435 1.02429 1.02422 1.02414 1.02404 1.02393 1.02381 1.02367 1.02351 1.02334 1.02314 1.02293 1.02269 1.02242 1.02213 1.0218 1.02145 1.02108 1.02068 1.02025 1.01981 1.01935 1.01887 1.01839 1.01791 1.01742 1.01693 1.01645 1.01597 1.0155 1.01503 1.01456 1.01409 1.01363 1.01315 1.01267 1.01218 1.01168 1.01115 1.0106 1.01002 1.00942 1.00877 1.00809 1.00736 1.00659 1.00576 1.00489 1.00395 1.00295 1.0019 1.00078 0.999602 0.998372 0.997094 0.995779 0.994438 0.993085 0.991734 0.990396 0.989086 0.987811 0.986577 0.985392 0.984254 0.983162 0.982116 0.98111 0.98014 0.979202 0.978293 0.977407 0.976545 0.975702 0.97488 0.974078 0.973297 0.972537 0.971802 0.971091 0.970406 0.969748 0.969117 0.968514 0.967937 0.967386 0.966858 0.966352 0.965865 0.965396 0.964941 0.964498 0.964064 0.963636 0.963212 0.962788 0.96236 0.961924 0.961476 0.96101 0.960523 0.960012 0.959473 0.958907 0.958316 0.957703 0.957076 0.956442 0.955809 0.955186 0.954577 0.953988 0.953418 0.952867 0.952332 0.951808 0.951293 0.950783 0.950276 0.950276 
1.02431 1.02476 1.02475 1.02473 1.02471 1.02469 1.02467 1.02464 1.0246 1.02455 1.02448 1.02441 1.02431 1.0242 1.02408 1.02394 1.02377 1.02359 1.02338 1.02316 1.0229 1.02262 1.02231 1.02197 1.0216 1.02121 1.02079 1.02035 1.01989 1.01943 1.01895 1.01847 1.01799 1.01752 1.01705 1.01658 1.01613 1.01568 1.01523 1.01479 1.01434 1.01389 1.01344 1.01297 1.01249 1.01198 1.01146 1.0109 1.01032 1.0097 1.00904 1.00834 1.0076 1.00681 1.00597 1.00507 1.00411 1.0031 1.00202 1.00089 0.999696 0.998446 0.997149 0.995816 0.994453 0.993077 0.991703 0.990342 0.989007 0.987711 0.986456 0.98525 0.984096 0.98299 0.981931 0.980918 0.979941 0.978999 0.978087 0.977199 0.976335 0.975492 0.974668 0.973864 0.973081 0.97232 0.971582 0.970869 0.970182 0.969524 0.968893 0.96829 0.967715 0.967167 0.966642 0.96614 0.965658 0.965194 0.964744 0.964305 0.963876 0.963453 0.963032 0.962611 0.962185 0.961751 0.961303 0.960839 0.960353 0.959842 0.959304 0.958739 0.95815 0.95754 0.956916 0.956285 0.955657 0.955038 0.954434 0.95385 0.953285 0.952739 0.952208 0.951688 0.951176 0.950668 0.950162 0.950162 
1.02456 1.025 1.02499 1.02497 1.02496 1.02494 1.02493 1.0249 1.02486 1.02482 1.02476 1.02468 1.02459 1.02448 1.02435 1.0242 1.02402 1.02383 1.02361 1.02336 1.02308 1.02278 1.02245 1.02209 1.0217 1.02129 1.02086 1.02041 1.01995 1.01948 1.01901 1.01854 1.01807 1.01761 1.01716 1.01672 1.01628 1.01586 1.01544 1.01502 1.0146 1.01417 1.01372 1.01327 1.01279 1.01229 1.01176 1.0112 1.0106 1.00997 1.0093 1.00858 1.00782 1.00701 1.00614 1.00522 1.00425 1.00322 1.00212 1.00097 0.999758 0.998486 0.997173 0.995817 0.994431 0.993031 0.991633 0.990252 0.98889 0.987571 0.986299 0.985072 0.983901 0.982784 0.981715 0.980694 0.979715 0.97877 0.977858 0.976972 0.97611 0.975269 0.974447 0.973644 0.972862 0.972101 0.971363 0.97065 0.969963 0.969305 0.968675 0.968073 0.9675 0.966954 0.966432 0.965934 0.965456 0.964995 0.964549 0.964114 0.963688 0.963267 0.962849 0.962429 0.962005 0.961571 0.961124 0.960659 0.960173 0.959663 0.959126 0.958563 0.957975 0.957368 0.956748 0.956122 0.955498 0.954884 0.954286 0.953707 0.953147 0.952605 0.952079 0.951562 0.951053 0.950547 0.950043 0.950043 
1.02483 1.02526 1.02524 1.02523 1.02522 1.02521 1.0252 1.02517 1.02514 1.0251 1.02504 1.02496 1.02487 1.02475 1.02461 1.02445 1.02426 1.02404 1.0238 1.02353 1.02323 1.02291 1.02255 1.02217 1.02177 1.02134 1.0209 1.02044 1.01998 1.01951 1.01904 1.01859 1.01813 1.0177 1.01727 1.01685 1.01645 1.01605 1.01566 1.01526 1.01485 1.01444 1.01401 1.01356 1.01308 1.01258 1.01204 1.01147 1.01087 1.01022 1.00953 1.0088 1.00801 1.00719 1.0063 1.00536 1.00437 1.00331 1.0022 1.00103 0.999788 0.998504 0.997171 0.995781 0.994376 0.992955 0.991524 0.99012 0.988741 0.987391 0.9861 0.984859 0.983668 0.982539 0.981467 0.980436 0.979458 0.978515 0.977604 0.976724 0.975866 0.97503 0.974214 0.973416 0.972638 0.97188 0.971144 0.970433 0.969747 0.96909 0.968461 0.967861 0.96729 0.966746 0.966227 0.965732 0.965256 0.964799 0.964355 0.963923 0.963499 0.96308 0.962663 0.962244 0.961819 0.961385 0.960937 0.960472 0.959986 0.959476 0.95894 0.958379 0.957794 0.957191 0.956574 0.955953 0.955335 0.954727 0.954134 0.953561 0.953006 0.952469 0.951946 0.951433 0.950927 0.950422 0.949918 0.949918 