# vtk DataFile Version 3.0
LBM simulation at step 180
ASCII
DATASET STRUCTURED_POINTS
DIMENSIONS 128 128 1
ORIGIN 0 0 0
SPACING 1 1 1
POINT_DATA 16384
SCALARS density float
LOOKUP_TABLE default
0.971306 1.03767 1.03952 1.03598 1.03597 1.03582 1.03525 1.03468 1.03411 1.03353 1.03295 1.03237 1.03181 1.03128 1.03078 1.03032 1.02989 1.02949 1.02911 1.02876 1.02842 1.02808 1.02773 1.02738 1.027 1.0266 1.02616 1.0257 1.02521 1.02469 1.02414 1.02359 1.02302 1.02244 1.02187 1.0213 1.02074 1.02019 1.01965 1.01912 1.0186 1.01809 1.01758 1.01708 1.01659 1.0161 1.0156 1.01511 1.01461 1.01411 1.01361 1.01311 1.01259 1.01208 1.01156 1.01103 1.0105 1.00997 1.00944 1.00891 1.00838 1.00786 1.00734 1.00682 1.00632 1.00582 1.00533 1.00485 1.00438 1.00392 1.00348 1.00304 1.00262 1.0022 1.00178 1.00138 1.00097 1.00056 1.00015 0.999733 0.999307 0.99887 0.99842 0.997957 0.997481 0.996992 0.996491 0.995979 0.995459 0.99493 0.994392 0.993841 0.993271 0.992673 0.992034 0.991338 0.990567 0.989703 0.988733 0.987651 0.98646 0.985176 0.983829 0.982458 0.981106 0.979814 0.978619 0.977546 0.976605 0.975796 0.975108 0.974523 0.974021 0.973578 0.973176 0.972795 0.972421 0.972041 0.971644 0.971226 0.970759 0.970224 0.969661 0.969392 0.967614 0.966373 0.983844 0.983844 
1.04096 1.0383 1.03434 1.03552 1.03616 1.03575 1.0352 1.03466 1.03411 1.03354 1.03297 1.0324 1.03185 1.03132 1.03082 1.03035 1.02991 1.0295 1.02912 1.02876 1.02841 1.02806 1.02771 1.02735 1.02696 1.02655 1.02612 1.02565 1.02515 1.02464 1.0241 1.02354 1.02298 1.02241 1.02184 1.02128 1.02072 1.02017 1.01963 1.0191 1.01858 1.01807 1.01757 1.01707 1.01657 1.01608 1.01559 1.01509 1.01459 1.01409 1.01359 1.01308 1.01257 1.01205 1.01153 1.01101 1.01048 1.00995 1.00942 1.00889 1.00837 1.00784 1.00732 1.00681 1.0063 1.0058 1.00531 1.00484 1.00437 1.00391 1.00346 1.00302 1.00259 1.00217 1.00176 1.00134 1.00093 1.00052 1.00011 0.999689 0.999262 0.998824 0.998374 0.997912 0.997436 0.996949 0.996449 0.995938 0.995418 0.994887 0.994346 0.99379 0.993215 0.992612 0.991968 0.99127 0.990501 0.989647 0.988692 0.987632 0.986468 0.985213 0.983893 0.982543 0.981203 0.979915 0.978713 0.977626 0.976665 0.975833 0.975122 0.974515 0.973992 0.973532 0.973114 0.972719 0.972331 0.971937 0.971526 0.971093 0.970623 0.970052 0.969296 0.968746 0.969489 0.970673 0.968838 0.968838 
1.04846 1.03496 1.03425 1.03671 1.03609 1.03536 1.03502 1.03461 1.03409 1.03354 1.03299 1.03244 1.0319 1.03138 1.03088 1.03041 1.02996 1.02955 1.02915 1.02878 1.02842 1.02806 1.0277 1.02733 1.02694 1.02652 1.02608 1.02561 1.02512 1.0246 1.02406 1.02351 1.02295 1.02239 1.02183 1.02127 1.02071 1.02017 1.01963 1.01911 1.01859 1.01808 1.01757 1.01707 1.01657 1.01608 1.01558 1.01509 1.01459 1.01408 1.01358 1.01307 1.01256 1.01204 1.01152 1.01099 1.01046 1.00993 1.00941 1.00888 1.00835 1.00783 1.00731 1.00679 1.00629 1.00579 1.0053 1.00482 1.00435 1.00388 1.00343 1.00299 1.00255 1.00212 1.0017 1.00128 1.00086 1.00044 1.00002 0.999599 0.999167 0.998726 0.998275 0.997812 0.997338 0.996853 0.996355 0.995848 0.995329 0.9948 0.99426 0.993704 0.993128 0.992525 0.991884 0.991191 0.990431 0.98959 0.988654 0.987614 0.986472 0.985239 0.983936 0.982598 0.981263 0.979971 0.97876 0.977657 0.976679 0.975828 0.975098 0.974475 0.973938 0.973466 0.973038 0.972635 0.972241 0.971842 0.971425 0.970965 0.970466 0.969984 0.969502 0.968772 0.968338 0.966575 0.960117 0.960117 
1.03257 1.03638 1.03837 1.03586 1.035 1.03526 1.03501 1.03449 1.034 1.03352 1.03301 1.03249 1.03197 1.03146 1.03097 1.03049 1.03004 1.02962 1.02921 1.02883 1.02845 1.02808 1.02771 1.02733 1.02693 1.02651 1.02606 1.02559 1.0251 1.02458 1.02405 1.0235 1.02295 1.02239 1.02183 1.02128 1.02073 1.02019 1.01966 1.01913 1.01861 1.0181 1.01759 1.01709 1.01659 1.01609 1.01559 1.01509 1.01459 1.01408 1.01357 1.01306 1.01254 1.01202 1.0115 1.01097 1.01045 1.00992 1.00939 1.00886 1.00833 1.00781 1.00729 1.00678 1.00627 1.00577 1.00528 1.00479 1.00432 1.00385 1.00339 1.00294 1.00249 1.00205 1.00162 1.00119 1.00076 1.00033 0.999897 0.999463 0.999023 0.998577 0.998123 0.997661 0.997188 0.996706 0.996215 0.995713 0.995201 0.994679 0.994144 0.993593 0.993022 0.992423 0.991786 0.991099 0.990348 0.989518 0.988596 0.987573 0.986449 0.985232 0.983944 0.982615 0.981283 0.979989 0.978769 0.977654 0.97666 0.975793 0.975049 0.974412 0.973865 0.973386 0.972954 0.972549 0.972153 0.971751 0.971336 0.9709 0.970408 0.969837 0.969324 0.968806 0.96788 0.965964 0.961915 0.961915 
1.03643 1.03653 1.03555 1.035 1.03543 1.03512 1.03461 1.03427 1.03392 1.03348 1.03301 1.03253 1.03204 1.03155 1.03107 1.0306 1.03015 1.02971 1.02929 1.02889 1.0285 1.02812 1.02773 1.02734 1.02693 1.02651 1.02606 1.02559 1.0251 1.02458 1.02406 1.02351 1.02297 1.02241 1.02186 1.02131 1.02077 1.02023 1.01969 1.01917 1.01865 1.01813 1.01762 1.01712 1.01661 1.01611 1.0156 1.0151 1.01459 1.01408 1.01357 1.01305 1.01253 1.01201 1.01148 1.01096 1.01043 1.0099 1.00937 1.00884 1.00831 1.00779 1.00727 1.00676 1.00625 1.00575 1.00525 1.00476 1.00428 1.0038 1.00333 1.00287 1.00241 1.00195 1.00151 1.00106 1.00061 1.00017 0.999727 0.999281 0.998832 0.99838 0.997923 0.99746 0.996991 0.996515 0.996031 0.995539 0.995038 0.994525 0.993999 0.993457 0.992892 0.992299 0.991668 0.990987 0.990244 0.989423 0.988513 0.987505 0.986397 0.985195 0.98392 0.9826 0.981272 0.979975 0.978749 0.977622 0.976615 0.975735 0.974979 0.974332 0.973778 0.973296 0.972862 0.972459 0.972069 0.971676 0.971262 0.970824 0.970369 0.969863 0.969281 0.968564 0.967286 0.966197 0.965354 0.965354 
1.03678 1.03514 1.03467 1.03525 1.035 1.03449 1.03432 1.03411 1.03376 1.03337 1.03298 1.03255 1.0321 1.03164 1.03118 1.03071 1.03026 1.02982 1.02939 1.02898 1.02857 1.02817 1.02777 1.02737 1.02695 1.02652 1.02607 1.0256 1.02511 1.0246 1.02407 1.02354 1.023 1.02245 1.0219 1.02136 1.02081 1.02028 1.01974 1.01922 1.01869 1.01818 1.01766 1.01715 1.01664 1.01613 1.01562 1.01511 1.0146 1.01408 1.01356 1.01304 1.01252 1.01199 1.01146 1.01093 1.0104 1.00987 1.00934 1.00881 1.00828 1.00776 1.00724 1.00672 1.00621 1.00571 1.0052 1.00471 1.00421 1.00373 1.00325 1.00277 1.00229 1.00182 1.00136 1.00089 1.00043 0.999972 0.999513 0.999055 0.998596 0.998137 0.997677 0.997215 0.99675 0.996281 0.995807 0.995327 0.994838 0.994337 0.993823 0.993291 0.992735 0.992149 0.991525 0.990851 0.990116 0.989306 0.988409 0.987415 0.986322 0.985135 0.983872 0.982561 0.981236 0.979938 0.978705 0.977568 0.976549 0.975657 0.97489 0.974236 0.973678 0.973195 0.972765 0.972368 0.971985 0.971604 0.971211 0.970789 0.970333 0.969847 0.969273 0.968626 0.967728 0.966849 0.966433 0.966433 
1.03462 1.03447 1.03466 1.0345 1.03418 1.03416 1.03406 1.03378 1.03351 1.03324 1.0329 1.03253 1.03213 1.0317 1.03127 1.03082 1.03037 1.02993 1.02949 1.02907 1.02865 1.02824 1.02782 1.02741 1.02698 1.02654 1.02609 1.02561 1.02512 1.02462 1.0241 1.02357 1.02303 1.02249 1.02195 1.02141 1.02087 1.02033 1.0198 1.01927 1.01875 1.01823 1.01771 1.01719 1.01667 1.01616 1.01564 1.01512 1.0146 1.01408 1.01356 1.01303 1.0125 1.01197 1.01143 1.0109 1.01037 1.00983 1.0093 1.00877 1.00824 1.00772 1.00719 1.00667 1.00616 1.00564 1.00514 1.00463 1.00413 1.00363 1.00313 1.00264 1.00214 1.00166 1.00117 1.00069 1.00021 0.99973 0.999256 0.998785 0.998316 0.997851 0.997389 0.996928 0.996468 0.996008 0.995545 0.995078 0.994602 0.994116 0.993615 0.993095 0.99255 0.991974 0.991358 0.990694 0.989968 0.98917 0.988285 0.987306 0.986228 0.985056 0.983806 0.982502 0.981181 0.979881 0.978641 0.977495 0.976465 0.975562 0.974786 0.974127 0.973566 0.973085 0.97266 0.972273 0.971903 0.971536 0.97116 0.970766 0.970339 0.969874 0.969321 0.968711 0.968147 0.967479 0.966891 0.966891 
1.03411 1.03382 1.03386 1.03373 1.03375 1.03374 1.03357 1.03342 1.03326 1.03304 1.03276 1.03245 1.03211 1.03173 1.03132 1.0309 1.03047 1.03003 1.02959 1.02916 1.02873 1.0283 1.02788 1.02745 1.02701 1.02657 1.02611 1.02563 1.02514 1.02464 1.02413 1.0236 1.02307 1.02253 1.02199 1.02146 1.02092 1.02038 1.01985 1.01932 1.0188 1.01827 1.01775 1.01723 1.0167 1.01618 1.01566 1.01513 1.0146 1.01407 1.01354 1.013 1.01247 1.01193 1.01139 1.01085 1.01031 1.00978 1.00924 1.00871 1.00818 1.00765 1.00712 1.0066 1.00607 1.00555 1.00503 1.00452 1.004 1.00349 1.00297 1.00246 1.00195 1.00145 1.00094 1.00044 0.99994 0.999446 0.998957 0.998474 0.997997 0.997527 0.997063 0.996605 0.996151 0.9957 0.99525 0.994796 0.994335 0.993864 0.993377 0.99287 0.992338 0.991773 0.991168 0.990514 0.989801 0.989015 0.988146 0.987182 0.98612 0.984963 0.983725 0.982429 0.981111 0.979809 0.978563 0.977407 0.976367 0.975454 0.97467 0.974005 0.973444 0.972965 0.972548 0.972171 0.971817 0.971469 0.971115 0.970744 0.970345 0.969915 0.969449 0.968921 0.968418 0.967901 0.967351 0.967351 
1.03353 1.03309 1.0331 1.03317 1.03321 1.03315 1.0331 1.03305 1.03293 1.03276 1.03256 1.03232 1.03203 1.0317 1.03133 1.03094 1.03053 1.03011 1.02967 1.02924 1.0288 1.02837 1.02793 1.02749 1.02704 1.02659 1.02613 1.02565 1.02516 1.02466 1.02415 1.02363 1.0231 1.02257 1.02203 1.0215 1.02096 1.02043 1.01989 1.01936 1.01883 1.01831 1.01778 1.01725 1.01672 1.01619 1.01566 1.01513 1.01459 1.01405 1.01351 1.01296 1.01242 1.01187 1.01133 1.01079 1.01024 1.0097 1.00916 1.00862 1.00809 1.00755 1.00702 1.00649 1.00596 1.00542 1.00489 1.00436 1.00383 1.0033 1.00277 1.00224 1.00172 1.00119 1.00067 1.00015 0.99963 0.999121 0.99862 0.998127 0.997644 0.997171 0.996707 0.996253 0.995806 0.995365 0.994926 0.994486 0.994041 0.993584 0.993113 0.99262 0.992101 0.991548 0.990956 0.990315 0.989615 0.988844 0.987991 0.987045 0.986 0.984858 0.983632 0.982345 0.98103 0.979726 0.978473 0.977308 0.976257 0.975335 0.974543 0.973874 0.973312 0.972837 0.972428 0.972064 0.971725 0.971397 0.971067 0.970724 0.970359 0.969963 0.969552 0.969115 0.968646 0.968208 0.967777 0.967777 
1.03268 1.03245 1.03251 1.03256 1.03259 1.03261 1.03263 1.0326 1.03253 1.03244 1.0323 1.03211 1.03188 1.03161 1.03129 1.03094 1.03055 1.03015 1.02973 1.02929 1.02886 1.02841 1.02797 1.02752 1.02706 1.0266 1.02613 1.02565 1.02516 1.02466 1.02415 1.02363 1.02311 1.02258 1.02205 1.02152 1.02098 1.02045 1.01992 1.01938 1.01885 1.01832 1.01779 1.01726 1.01672 1.01618 1.01564 1.0151 1.01455 1.014 1.01345 1.0129 1.01235 1.0118 1.01124 1.01069 1.01014 1.0096 1.00905 1.00851 1.00796 1.00742 1.00688 1.00634 1.00579 1.00525 1.00471 1.00416 1.00362 1.00307 1.00252 1.00198 1.00143 1.00089 1.00035 0.999811 0.999283 0.998762 0.998251 0.997752 0.997265 0.99679 0.996329 0.99588 0.995441 0.995009 0.994582 0.994156 0.993724 0.993282 0.992825 0.992346 0.991841 0.991302 0.990723 0.990096 0.989412 0.988658 0.987823 0.986895 0.985869 0.984744 0.983531 0.982252 0.98094 0.979634 0.978376 0.977202 0.97614 0.975208 0.974408 0.973734 0.973172 0.972701 0.9723 0.971948 0.971626 0.971318 0.971011 0.970695 0.970366 0.970013 0.96964 0.969258 0.968852 0.968455 0.968083 0.968083 
1.03203 1.03186 1.03192 1.03197 1.03202 1.03208 1.03212 1.03213 1.03212 1.03207 1.03198 1.03185 1.03167 1.03145 1.03118 1.03087 1.03052 1.03014 1.02974 1.02932 1.02888 1.02844 1.02798 1.02753 1.02706 1.0266 1.02612 1.02564 1.02514 1.02464 1.02413 1.02362 1.02309 1.02257 1.02204 1.02151 1.02097 1.02044 1.01991 1.01938 1.01884 1.01831 1.01777 1.01723 1.01669 1.01614 1.01559 1.01504 1.01449 1.01393 1.01337 1.01281 1.01225 1.01169 1.01113 1.01057 1.01001 1.00946 1.0089 1.00835 1.0078 1.00724 1.00669 1.00614 1.00558 1.00503 1.00447 1.00391 1.00335 1.00279 1.00222 1.00166 1.0011 1.00054 0.999989 0.999442 0.998903 0.998375 0.997859 0.997356 0.996868 0.996395 0.995937 0.995493 0.995062 0.99464 0.994224 0.993809 0.993391 0.992962 0.992518 0.992053 0.99156 0.991036 0.990471 0.98986 0.989193 0.988458 0.987642 0.986735 0.985729 0.984621 0.983422 0.982153 0.980844 0.979537 0.978272 0.977089 0.976017 0.975074 0.974267 0.973588 0.973025 0.972557 0.972163 0.971823 0.971516 0.971228 0.970945 0.970656 0.970355 0.970042 0.969708 0.969362 0.96901 0.968652 0.968306 0.968306 
1.03145 1.03131 1.03137 1.03143 1.0315 1.03156 1.03161 1.03166 1.03168 1.03166 1.03162 1.03154 1.03141 1.03124 1.03101 1.03075 1.03044 1.03009 1.02971 1.0293 1.02887 1.02843 1.02797 1.02751 1.02704 1.02656 1.02608 1.02559 1.02509 1.02459 1.02407 1.02356 1.02304 1.02251 1.02199 1.02146 1.02093 1.02039 1.01986 1.01933 1.01879 1.01826 1.01771 1.01717 1.01662 1.01607 1.01551 1.01495 1.01438 1.01382 1.01325 1.01268 1.01211 1.01154 1.01097 1.0104 1.00984 1.00927 1.00871 1.00815 1.00758 1.00702 1.00646 1.00589 1.00532 1.00475 1.00418 1.00361 1.00303 1.00245 1.00188 1.0013 1.00073 1.00016 0.999599 0.999045 0.998501 0.997969 0.997451 0.996949 0.996462 0.995993 0.99554 0.995102 0.994679 0.994265 0.993859 0.993454 0.993046 0.992628 0.992196 0.991743 0.991264 0.990752 0.990203 0.989608 0.988959 0.988244 0.98745 0.986565 0.985579 0.98449 0.983306 0.982047 0.980743 0.979434 0.978163 0.976971 0.975889 0.974936 0.974121 0.973437 0.972871 0.972405 0.972018 0.971687 0.971395 0.971124 0.970862 0.970599 0.970327 0.970044 0.969747 0.969436 0.969119 0.968796 0.968475 0.968475 
1.03091 1.03084 1.03089 1.03095 1.03101 1.03107 1.03114 1.03119 1.03123 1.03124 1.03123 1.03119 1.0311 1.03097 1.03079 1.03057 1.0303 1.02998 1.02963 1.02924 1.02882 1.02838 1.02792 1.02745 1.02697 1.02649 1.02599 1.0255 1.02499 1.02449 1.02397 1.02345 1.02293 1.02241 1.02188 1.02136 1.02083 1.0203 1.01977 1.01923 1.01869 1.01815 1.01761 1.01706 1.0165 1.01594 1.01538 1.01481 1.01423 1.01366 1.01308 1.0125 1.01192 1.01134 1.01077 1.01019 1.00962 1.00904 1.00847 1.0079 1.00732 1.00675 1.00617 1.00559 1.00501 1.00443 1.00384 1.00325 1.00267 1.00208 1.00149 1.00091 1.00033 0.999754 0.999188 0.998631 0.998086 0.997555 0.997039 0.996539 0.996057 0.995592 0.995145 0.994714 0.994296 0.99389 0.993491 0.993094 0.992694 0.992286 0.991863 0.991421 0.990953 0.990455 0.98992 0.989342 0.988712 0.988017 0.987246 0.986384 0.98542 0.984351 0.983183 0.981934 0.980634 0.979325 0.978049 0.976849 0.975756 0.974793 0.973969 0.973278 0.97271 0.972245 0.971862 0.971539 0.971259 0.971004 0.970761 0.97052 0.970274 0.970018 0.969752 0.969473 0.969184 0.968891 0.968596 0.968596 
1.03046 1.03043 1.03047 1.03052 1.03057 1.03063 1.03069 1.03075 1.03079 1.03082 1.03083 1.03081 1.03076 1.03067 1.03053 1.03035 1.03012 1.02983 1.0295 1.02913 1.02873 1.02829 1.02783 1.02736 1.02687 1.02638 1.02587 1.02536 1.02485 1.02434 1.02382 1.0233 1.02277 1.02225 1.02172 1.0212 1.02067 1.02014 1.01961 1.01907 1.01854 1.01799 1.01744 1.01689 1.01633 1.01576 1.01519 1.01461 1.01403 1.01344 1.01286 1.01227 1.01169 1.0111 1.01051 1.00993 1.00935 1.00876 1.00818 1.00759 1.00701 1.00642 1.00583 1.00524 1.00465 1.00405 1.00346 1.00286 1.00226 1.00167 1.00108 1.00049 0.999906 0.99933 0.998765 0.99821 0.997668 0.997141 0.99663 0.996136 0.99566 0.995201 0.994759 0.994333 0.993921 0.99352 0.993126 0.992735 0.992341 0.991939 0.991523 0.991089 0.990632 0.990145 0.989625 0.989063 0.988452 0.987779 0.98703 0.986191 0.985251 0.984202 0.98305 0.981812 0.980518 0.979208 0.977928 0.976719 0.975616 0.974643 0.973809 0.973112 0.972539 0.972073 0.971693 0.971376 0.971105 0.970863 0.970636 0.970415 0.970191 0.96996 0.969719 0.969468 0.969206 0.968938 0.968666 0.968666 
1.03007 1.03008 1.03011 1.03014 1.03018 1.03023 1.03028 1.03033 1.03038 1.03041 1.03044 1.03044 1.03041 1.03035 1.03025 1.0301 1.0299 1.02965 1.02934 1.029 1.0286 1.02817 1.02771 1.02723 1.02674 1.02623 1.02571 1.02519 1.02466 1.02414 1.02361 1.02308 1.02255 1.02203 1.0215 1.02097 1.02045 1.01992 1.01939 1.01885 1.01831 1.01777 1.01722 1.01666 1.01609 1.01552 1.01494 1.01435 1.01377 1.01317 1.01258 1.01199 1.0114 1.0108 1.01021 1.00962 1.00902 1.00843 1.00784 1.00724 1.00665 1.00605 1.00545 1.00485 1.00425 1.00365 1.00304 1.00244 1.00184 1.00124 1.00064 1.00006 0.999474 0.998903 0.998342 0.997793 0.997258 0.996737 0.996233 0.995746 0.995276 0.994823 0.994387 0.993966 0.993557 0.993159 0.992768 0.992379 0.991988 0.99159 0.991179 0.990752 0.990302 0.989826 0.989319 0.988773 0.98818 0.987528 0.986802 0.985987 0.985068 0.98404 0.982904 0.981678 0.98039 0.979081 0.977796 0.976579 0.975466 0.974483 0.973639 0.972934 0.972356 0.971887 0.971507 0.971194 0.97093 0.970698 0.970484 0.970278 0.970073 0.969863 0.969644 0.969417 0.96918 0.968935 0.968684 0.968684 
1.02973 1.02978 1.0298 1.02982 1.02984 1.02988 1.02992 1.02996 1.03 1.03003 1.03006 1.03008 1.03007 1.03003 1.02995 1.02983 1.02966 1.02944 1.02916 1.02883 1.02845 1.02803 1.02757 1.02708 1.02657 1.02605 1.02552 1.02498 1.02444 1.02389 1.02335 1.02281 1.02228 1.02175 1.02122 1.02069 1.02016 1.01963 1.0191 1.01857 1.01803 1.01748 1.01693 1.01636 1.01579 1.01521 1.01463 1.01404 1.01345 1.01285 1.01225 1.01165 1.01105 1.01046 1.00986 1.00926 1.00866 1.00806 1.00746 1.00685 1.00625 1.00564 1.00504 1.00443 1.00382 1.00321 1.0026 1.002 1.0014 1.0008 1.00021 0.999622 0.999047 0.998482 0.997929 0.997388 0.996862 0.99635 0.995855 0.995375 0.994911 0.994464 0.994031 0.993613 0.993206 0.992809 0.992418 0.99203 0.991639 0.991242 0.990834 0.99041 0.989967 0.989499 0.989003 0.988472 0.987896 0.987264 0.98656 0.985767 0.984871 0.983862 0.982743 0.981527 0.980245 0.978937 0.977647 0.976423 0.975301 0.974307 0.973454 0.97274 0.972155 0.971681 0.971299 0.970987 0.970727 0.970501 0.970297 0.970104 0.969914 0.969721 0.969522 0.969315 0.969099 0.968876 0.968645 0.968645 
1.02945 1.02952 1.02953 1.02954 1.02955 1.02957 1.02959 1.02962 1.02966 1.02969 1.02972 1.02974 1.02974 1.02972 1.02966 1.02957 1.02942 1.02922 1.02897 1.02866 1.02829 1.02788 1.02742 1.02692 1.0264 1.02586 1.0253 1.02474 1.02418 1.02362 1.02306 1.02251 1.02196 1.02142 1.02088 1.02035 1.01982 1.01929 1.01876 1.01822 1.01768 1.01713 1.01657 1.01601 1.01543 1.01485 1.01427 1.01367 1.01308 1.01248 1.01187 1.01127 1.01067 1.01007 1.00946 1.00886 1.00826 1.00765 1.00704 1.00643 1.00582 1.00521 1.0046 1.00399 1.00338 1.00277 1.00216 1.00156 1.00096 1.00036 0.999778 0.999201 0.998634 0.998078 0.997535 0.997004 0.996488 0.995985 0.995497 0.995025 0.994567 0.994123 0.993693 0.993276 0.992869 0.992471 0.992078 0.991687 0.991294 0.990896 0.990488 0.990066 0.989626 0.989165 0.988678 0.988159 0.987599 0.986985 0.986301 0.985529 0.984653 0.983663 0.982559 0.981355 0.980078 0.97877 0.977477 0.976245 0.975114 0.97411 0.973246 0.972522 0.971929 0.971449 0.971063 0.97075 0.97049 0.970268 0.97007 0.969885 0.969706 0.969528 0.969345 0.969156 0.968959 0.968754 0.968543 0.968543 
1.0292 1.0293 1.0293 1.02929 1.02929 1.0293 1.02931 1.02933 1.02935 1.02938 1.02941 1.02943 1.02944 1.02943 1.02939 1.02931 1.02919 1.02901 1.02878 1.02848 1.02813 1.02772 1.02726 1.02676 1.02623 1.02567 1.02509 1.0245 1.02391 1.02333 1.02275 1.02217 1.02161 1.02105 1.02051 1.01997 1.01944 1.0189 1.01837 1.01783 1.01729 1.01674 1.01618 1.01561 1.01503 1.01445 1.01386 1.01326 1.01267 1.01206 1.01146 1.01086 1.01025 1.00965 1.00904 1.00844 1.00783 1.00722 1.00661 1.006 1.00539 1.00477 1.00416 1.00355 1.00294 1.00233 1.00172 1.00112 1.00053 0.999945 0.999368 0.998801 0.998244 0.997699 0.997166 0.996645 0.996138 0.995644 0.995163 0.994696 0.994243 0.993802 0.993373 0.992954 0.992545 0.992143 0.991746 0.991351 0.990954 0.990552 0.990142 0.989719 0.98928 0.988823 0.988344 0.987835 0.987287 0.986689 0.986023 0.98527 0.984412 0.983439 0.982348 0.981153 0.979881 0.978573 0.977277 0.976038 0.974897 0.973882 0.973007 0.972274 0.971671 0.971184 0.970791 0.970473 0.970211 0.969989 0.969794 0.969615 0.969444 0.969276 0.969106 0.968932 0.968751 0.968563 0.968369 0.968369 
1.02898 1.0291 1.02909 1.02907 1.02906 1.02906 1.02906 1.02907 1.02909 1.02911 1.02913 1.02916 1.02917 1.02917 1.02914 1.02908 1.02897 1.02882 1.0286 1.02832 1.02798 1.02758 1.02713 1.02662 1.02607 1.02549 1.02489 1.02428 1.02366 1.02304 1.02243 1.02183 1.02125 1.02068 1.02012 1.01957 1.01902 1.01849 1.01795 1.01741 1.01686 1.01631 1.01575 1.01518 1.0146 1.01402 1.01343 1.01283 1.01223 1.01163 1.01103 1.01043 1.00982 1.00922 1.00861 1.00801 1.0074 1.00679 1.00618 1.00557 1.00495 1.00434 1.00373 1.00312 1.00251 1.0019 1.00131 1.00071 1.00013 0.999552 0.998985 0.998428 0.997882 0.997347 0.996824 0.996312 0.995813 0.995326 0.994851 0.994388 0.993937 0.993496 0.993066 0.992645 0.992232 0.991825 0.991422 0.99102 0.990617 0.990209 0.989794 0.989368 0.988928 0.988472 0.987997 0.987495 0.986958 0.986372 0.98572 0.984983 0.984141 0.983181 0.982102 0.980914 0.979646 0.978338 0.977037 0.975791 0.974641 0.973616 0.97273 0.971985 0.971373 0.970875 0.970475 0.97015 0.969884 0.969659 0.969463 0.969286 0.96912 0.968959 0.968798 0.968636 0.968469 0.968297 0.968118 0.968118 
1.02878 1.02891 1.0289 1.02887 1.02886 1.02884 1.02884 1.02884 1.02885 1.02887 1.0289 1.02892 1.02894 1.02894 1.02892 1.02887 1.02878 1.02864 1.02844 1.02819 1.02786 1.02747 1.02702 1.02651 1.02595 1.02535 1.02472 1.02408 1.02343 1.02278 1.02213 1.02151 1.0209 1.0203 1.01973 1.01916 1.01861 1.01806 1.01752 1.01697 1.01642 1.01587 1.01531 1.01474 1.01416 1.01357 1.01299 1.01239 1.0118 1.0112 1.0106 1.01 1.0094 1.0088 1.00819 1.00759 1.00698 1.00637 1.00576 1.00515 1.00454 1.00393 1.00332 1.00271 1.00211 1.00151 1.00092 1.00034 0.99976 0.999193 0.998635 0.998088 0.997551 0.997025 0.99651 0.996005 0.995512 0.99503 0.994558 0.994097 0.993646 0.993204 0.992771 0.992345 0.991927 0.991513 0.991102 0.990692 0.99028 0.989864 0.989441 0.98901 0.988566 0.988109 0.987634 0.987136 0.986606 0.986029 0.985388 0.984662 0.983832 0.982883 0.981812 0.980631 0.979365 0.978055 0.97675 0.975497 0.974338 0.973302 0.972405 0.971649 0.971025 0.970517 0.970107 0.969773 0.969499 0.969269 0.96907 0.968892 0.968727 0.96857 0.968417 0.968264 0.968108 0.967949 0.967784 0.967784 
1.02859 1.02874 1.02872 1.02869 1.02867 1.02865 1.02864 1.02864 1.02865 1.02867 1.02869 1.02871 1.02873 1.02874 1.02873 1.02869 1.02861 1.02849 1.02831 1.02807 1.02776 1.02738 1.02694 1.02643 1.02586 1.02525 1.0246 1.02392 1.02324 1.02255 1.02188 1.02122 1.02058 1.01996 1.01936 1.01878 1.01821 1.01765 1.0171 1.01655 1.016 1.01544 1.01488 1.01431 1.01373 1.01315 1.01256 1.01197 1.01138 1.01079 1.01019 1.00959 1.009 1.0084 1.0078 1.00719 1.00659 1.00598 1.00538 1.00477 1.00416 1.00355 1.00295 1.00235 1.00175 1.00116 1.00057 0.999995 0.999427 0.998868 0.998319 0.997779 0.99725 0.99673 0.996221 0.995721 0.995231 0.994751 0.99428 0.993819 0.993365 0.99292 0.992482 0.992051 0.991624 0.991202 0.990782 0.990361 0.989939 0.989513 0.989081 0.988641 0.988191 0.987729 0.987252 0.986754 0.986227 0.985655 0.98502 0.984302 0.983479 0.982537 0.981472 0.980293 0.979027 0.977715 0.976405 0.975145 0.973977 0.972931 0.972024 0.971256 0.970621 0.970102 0.96968 0.969336 0.969053 0.968815 0.96861 0.968428 0.968263 0.968107 0.967958 0.967811 0.967665 0.967516 0.967364 0.967364 
1.02841 1.02857 1.02854 1.02852 1.02849 1.02847 1.02846 1.02846 1.02847 1.02849 1.02851 1.02854 1.02856 1.02857 1.02857 1.02854 1.02847 1.02836 1.0282 1.02798 1.02769 1.02733 1.02689 1.02639 1.02582 1.02519 1.02452 1.02382 1.02311 1.02239 1.02167 1.02098 1.02031 1.01966 1.01903 1.01843 1.01785 1.01728 1.01672 1.01616 1.01561 1.01505 1.01448 1.01391 1.01334 1.01276 1.01217 1.01159 1.011 1.01041 1.00982 1.00923 1.00863 1.00804 1.00744 1.00684 1.00624 1.00564 1.00503 1.00443 1.00382 1.00322 1.00262 1.00202 1.00143 1.00084 1.00026 0.999693 0.999131 0.998578 0.998035 0.997501 0.996976 0.99646 0.995954 0.995456 0.994966 0.994486 0.994013 0.993548 0.993091 0.99264 0.992196 0.991756 0.991321 0.990888 0.990457 0.990025 0.98959 0.989152 0.988708 0.988257 0.987797 0.987327 0.986844 0.986343 0.985813 0.985242 0.984609 0.983894 0.983075 0.982136 0.981072 0.979893 0.978626 0.977311 0.975995 0.974729 0.973553 0.972498 0.97158 0.970801 0.970154 0.969624 0.96919 0.968836 0.968542 0.968295 0.968082 0.967894 0.967725 0.967569 0.967421 0.967279 0.967139 0.966999 0.966858 0.966858 
1.02823 1.0284 1.02837 1.02835 1.02832 1.02831 1.0283 1.0283 1.02831 1.02833 1.02835 1.02838 1.0284 1.02842 1.02842 1.0284 1.02835 1.02825 1.02811 1.02791 1.02764 1.0273 1.02688 1.02638 1.02581 1.02518 1.0245 1.02378 1.02303 1.02228 1.02153 1.0208 1.0201 1.01942 1.01877 1.01814 1.01754 1.01696 1.01639 1.01582 1.01526 1.0147 1.01413 1.01356 1.01299 1.01241 1.01183 1.01125 1.01067 1.01008 1.0095 1.00891 1.00832 1.00773 1.00714 1.00654 1.00594 1.00534 1.00474 1.00413 1.00353 1.00293 1.00233 1.00174 1.00115 1.00057 0.999993 0.999427 0.99887 0.998321 0.997781 0.997249 0.996725 0.99621 0.995703 0.995203 0.994712 0.994228 0.993751 0.993281 0.992817 0.992359 0.991906 0.991457 0.991011 0.990566 0.990121 0.989676 0.989227 0.988774 0.988315 0.98785 0.987378 0.986897 0.986404 0.985895 0.985359 0.984784 0.984148 0.983431 0.982611 0.98167 0.980605 0.979424 0.978154 0.976835 0.975514 0.974242 0.973059 0.971996 0.971069 0.970281 0.969623 0.969081 0.968636 0.96827 0.967965 0.967707 0.967486 0.967291 0.967116 0.966957 0.966809 0.966669 0.966534 0.966401 0.966268 0.966268 
1.02805 1.02823 1.02821 1.02818 1.02816 1.02815 1.02814 1.02815 1.02816 1.02818 1.02821 1.02824 1.02827 1.02829 1.0283 1.02828 1.02824 1.02816 1.02804 1.02786 1.02761 1.02729 1.02689 1.02641 1.02585 1.02522 1.02453 1.02379 1.02302 1.02224 1.02146 1.0207 1.01995 1.01924 1.01857 1.01792 1.0173 1.0167 1.01611 1.01554 1.01497 1.01441 1.01384 1.01327 1.0127 1.01213 1.01156 1.01098 1.0104 1.00982 1.00924 1.00865 1.00807 1.00748 1.00689 1.00629 1.0057 1.0051 1.0045 1.00389 1.00329 1.00269 1.00209 1.0015 1.00091 1.00033 0.999761 0.999196 0.99864 0.998091 0.99755 0.997017 0.996492 0.995974 0.995463 0.99496 0.994463 0.993974 0.99349 0.993013 0.992541 0.992073 0.991609 0.991148 0.990689 0.99023 0.98977 0.989308 0.988843 0.988372 0.987897 0.987415 0.986926 0.98643 0.985924 0.985403 0.984857 0.984273 0.983631 0.982907 0.982081 0.981136 0.980066 0.97888 0.977606 0.976283 0.974958 0.97368 0.972492 0.971423 0.970489 0.969693 0.969026 0.968474 0.968018 0.967641 0.967325 0.967057 0.966826 0.966623 0.966442 0.966279 0.966129 0.965989 0.965857 0.96573 0.965604 0.965604 
1.02788 1.02806 1.02804 1.02802 1.02801 1.028 1.028 1.02801 1.02803 1.02805 1.02808 1.02812 1.02815 1.02817 1.02818 1.02818 1.02815 1.02808 1.02797 1.02781 1.02759 1.0273 1.02692 1.02646 1.02592 1.0253 1.0246 1.02386 1.02307 1.02226 1.02145 1.02065 1.01988 1.01914 1.01843 1.01776 1.01712 1.0165 1.01591 1.01532 1.01475 1.01418 1.01362 1.01305 1.01248 1.01192 1.01134 1.01077 1.0102 1.00962 1.00904 1.00846 1.00788 1.00729 1.0067 1.00611 1.00551 1.00491 1.0043 1.0037 1.0031 1.0025 1.0019 1.0013 1.00072 1.00013 0.999561 0.998994 0.998434 0.997884 0.997338 0.996801 0.996271 0.995747 0.99523 0.99472 0.994216 0.993718 0.993226 0.992738 0.992256 0.991777 0.9913 0.990825 0.990351 0.989875 0.989398 0.988917 0.988431 0.987941 0.987444 0.986942 0.986435 0.98592 0.985397 0.984861 0.984301 0.983704 0.98305 0.982316 0.981481 0.980527 0.97945 0.978259 0.976979 0.975652 0.974324 0.973044 0.971854 0.970781 0.969843 0.969041 0.968367 0.967807 0.967342 0.966954 0.966628 0.96635 0.966109 0.965898 0.96571 0.965542 0.965389 0.96525 0.965119 0.964995 0.964875 0.964875 
1.02772 1.0279 1.02789 1.02787 1.02786 1.02786 1.02786 1.02788 1.0279 1.02794 1.02797 1.02801 1.02804 1.02807 1.02808 1.02808 1.02806 1.02801 1.02792 1.02778 1.02758 1.02732 1.02697 1.02653 1.02601 1.0254 1.02472 1.02397 1.02317 1.02234 1.0215 1.02068 1.01987 1.0191 1.01837 1.01767 1.017 1.01637 1.01576 1.01517 1.0146 1.01403 1.01346 1.0129 1.01233 1.01177 1.0112 1.01063 1.01006 1.00949 1.00891 1.00833 1.00775 1.00716 1.00657 1.00597 1.00537 1.00477 1.00416 1.00356 1.00295 1.00234 1.00174 1.00114 1.00055 0.999964 0.999386 0.998816 0.998248 0.997691 0.997142 0.996595 0.996056 0.995525 0.994999 0.994479 0.993966 0.993457 0.992954 0.992455 0.99196 0.991467 0.990975 0.990484 0.989991 0.989496 0.988997 0.988495 0.987986 0.987472 0.986952 0.986427 0.985897 0.985361 0.984818 0.984262 0.983685 0.983072 0.982403 0.981656 0.980808 0.979843 0.978757 0.977559 0.976275 0.974945 0.973616 0.972337 0.971147 0.970074 0.969135 0.968331 0.967653 0.967086 0.966614 0.966218 0.965883 0.965596 0.965346 0.965127 0.964933 0.964759 0.964603 0.964462 0.964332 0.96421 0.964094 0.964094 
1.02757 1.02775 1.02774 1.02773 1.02772 1.02773 1.02774 1.02776 1.02779 1.02783 1.02787 1.02791 1.02794 1.02797 1.02799 1.028 1.02799 1.02795 1.02787 1.02776 1.02758 1.02734 1.02702 1.02662 1.02612 1.02553 1.02486 1.02411 1.02331 1.02247 1.02161 1.02076 1.01993 1.01913 1.01836 1.01764 1.01696 1.01631 1.01569 1.01509 1.0145 1.01393 1.01337 1.0128 1.01224 1.01168 1.01112 1.01055 1.00998 1.00941 1.00884 1.00826 1.00768 1.00709 1.00649 1.00589 1.00529 1.00467 1.00406 1.00345 1.00283 1.00223 1.00162 1.00101 1.00041 0.999821 0.999229 0.998653 0.998082 0.997509 0.996951 0.996397 0.995844 0.995302 0.994767 0.994233 0.993709 0.993189 0.992671 0.99216 0.991649 0.99114 0.99063 0.990119 0.989605 0.989087 0.988565 0.988036 0.987502 0.986961 0.986414 0.985863 0.985307 0.984747 0.984181 0.983604 0.983007 0.982374 0.981688 0.980924 0.980061 0.979084 0.977987 0.976782 0.975495 0.974165 0.972839 0.971563 0.970377 0.969309 0.968373 0.96757 0.966891 0.966322 0.965845 0.965443 0.965101 0.964806 0.964549 0.964323 0.964122 0.963943 0.963783 0.96364 0.96351 0.96339 0.963277 0.963277 