# vtk DataFile Version 3.0
LBM simulation at step 220
ASCII
DATASET STRUCTURED_POINTS
DIMENSIONS 128 128 1
ORIGIN 0 0 0
SPACING 1 1 1
POINT_DATA 16384
SCALARS density float
LOOKUP_TABLE default
0.967359 1.0338 1.03541 1.03191 1.03197 1.03196 1.03159 1.03124 1.03092 1.03059 1.03024 1.02989 1.02953 1.02917 1.0288 1.02842 1.02804 1.02765 1.02726 1.02685 1.02644 1.02602 1.02558 1.02512 1.02464 1.02414 1.0236 1.02303 1.02241 1.02175 1.02103 1.02026 1.01943 1.01854 1.0176 1.0166 1.01557 1.0145 1.0134 1.01231 1.01121 1.01014 1.00909 1.00809 1.00713 1.00622 1.00537 1.00458 1.00384 1.00314 1.00249 1.00188 1.0013 1.00074 1.00021 0.999695 0.999194 0.998704 0.998222 0.997747 0.997277 0.996812 0.99635 0.995892 0.995436 0.994983 0.994533 0.994086 0.993641 0.993199 0.992759 0.992322 0.991886 0.991453 0.991022 0.990592 0.990164 0.989736 0.989309 0.988883 0.988456 0.988029 0.987601 0.987171 0.986741 0.986309 0.985875 0.98544 0.985003 0.984566 0.984127 0.983688 0.983249 0.982812 0.982376 0.981943 0.981514 0.981089 0.980669 0.980256 0.97985 0.979451 0.979059 0.978674 0.978296 0.977921 0.97755 0.977179 0.976806 0.976427 0.976037 0.975631 0.975204 0.974748 0.974254 0.973714 0.973113 0.972437 0.97167 0.970795 0.969779 0.968592 0.96727 0.966133 0.963418 0.961095 0.977097 0.977097 
1.03603 1.03437 1.0304 1.03153 1.03221 1.03192 1.03154 1.03121 1.03088 1.03054 1.0302 1.02984 1.02948 1.02912 1.02875 1.02837 1.02799 1.0276 1.0272 1.0268 1.02638 1.02596 1.02551 1.02505 1.02457 1.02406 1.02352 1.02295 1.02233 1.02167 1.02095 1.02018 1.01936 1.01848 1.01755 1.01657 1.01555 1.0145 1.01342 1.01233 1.01125 1.01018 1.00914 1.00814 1.00718 1.00627 1.00542 1.00462 1.00387 1.00317 1.00251 1.00189 1.00131 1.00075 1.00021 0.999696 0.999193 0.998702 0.99822 0.997745 0.997275 0.99681 0.996349 0.995891 0.995436 0.994983 0.994534 0.994087 0.993642 0.9932 0.99276 0.992323 0.991887 0.991453 0.991021 0.99059 0.990161 0.989732 0.989303 0.988875 0.988446 0.988017 0.987586 0.987155 0.986722 0.986287 0.985851 0.985413 0.984974 0.984534 0.984092 0.983651 0.98321 0.98277 0.982331 0.981896 0.981463 0.981036 0.980613 0.980197 0.979787 0.979384 0.978988 0.978598 0.978214 0.977835 0.977458 0.977081 0.976701 0.976314 0.975916 0.975502 0.975066 0.9746 0.974096 0.973543 0.972929 0.972238 0.971457 0.97057 0.969555 0.968343 0.966844 0.965445 0.965228 0.965349 0.962397 0.962397 
1.04344 1.03117 1.03044 1.03284 1.03226 1.03164 1.03142 1.03118 1.03085 1.0305 1.03015 1.02979 1.02943 1.02906 1.02869 1.02831 1.02792 1.02753 1.02713 1.02672 1.0263 1.02587 1.02543 1.02496 1.02447 1.02396 1.02341 1.02284 1.02222 1.02155 1.02084 1.02008 1.01927 1.01841 1.01749 1.01653 1.01553 1.01449 1.01344 1.01237 1.0113 1.01025 1.00921 1.00822 1.00726 1.00635 1.00549 1.00468 1.00392 1.00321 1.00255 1.00192 1.00133 1.00077 1.00023 0.999708 0.999203 0.99871 0.998227 0.997751 0.997281 0.996816 0.996354 0.995896 0.99544 0.994988 0.994537 0.99409 0.993644 0.993201 0.992759 0.99232 0.991882 0.991445 0.99101 0.990576 0.990143 0.989709 0.989276 0.988843 0.988408 0.987973 0.987536 0.987098 0.986659 0.986218 0.985775 0.98533 0.984884 0.984437 0.98399 0.983542 0.983095 0.982649 0.982205 0.981764 0.981327 0.980894 0.980467 0.980045 0.97963 0.979221 0.978819 0.978423 0.978033 0.977646 0.977262 0.976878 0.97649 0.976096 0.97569 0.975269 0.974824 0.97435 0.973838 0.973277 0.972657 0.971963 0.971177 0.970269 0.969233 0.968117 0.966897 0.965327 0.963955 0.961216 0.953806 0.953806 
1.02805 1.03279 1.03474 1.03224 1.03141 1.03171 1.03154 1.03113 1.03077 1.03044 1.0301 1.02973 1.02936 1.02899 1.02862 1.02823 1.02785 1.02745 1.02705 1.02664 1.02621 1.02578 1.02532 1.02485 1.02436 1.02383 1.02328 1.0227 1.02208 1.02142 1.02071 1.01995 1.01915 1.0183 1.01741 1.01647 1.01549 1.01448 1.01345 1.01241 1.01136 1.01032 1.00931 1.00832 1.00736 1.00645 1.00559 1.00477 1.004 1.00329 1.00261 1.00197 1.00137 1.0008 1.00026 0.999732 0.999224 0.998728 0.998243 0.997765 0.997294 0.996828 0.996365 0.995906 0.995449 0.994995 0.994543 0.994094 0.993646 0.993199 0.992755 0.992312 0.99187 0.991429 0.990988 0.990548 0.990108 0.989667 0.989226 0.988784 0.98834 0.987895 0.987449 0.987001 0.98655 0.986099 0.985645 0.98519 0.984734 0.984277 0.98382 0.983363 0.982907 0.982452 0.982001 0.981552 0.981108 0.980668 0.980234 0.979806 0.979384 0.978969 0.97856 0.978158 0.97776 0.977366 0.976975 0.976583 0.976188 0.975786 0.975373 0.974945 0.974494 0.974015 0.973499 0.972935 0.972312 0.971614 0.970832 0.96995 0.968926 0.967729 0.966491 0.965146 0.963305 0.960423 0.955423 0.955423 
1.0323 1.03333 1.03233 1.03175 1.03214 1.03182 1.03133 1.03104 1.03075 1.03041 1.03004 1.02967 1.0293 1.02892 1.02854 1.02815 1.02776 1.02736 1.02696 1.02654 1.02611 1.02567 1.0252 1.02472 1.02422 1.02369 1.02313 1.02254 1.02191 1.02125 1.02054 1.0198 1.01901 1.01817 1.0173 1.01639 1.01544 1.01446 1.01346 1.01245 1.01143 1.01042 1.00942 1.00844 1.00749 1.00658 1.00571 1.00489 1.00411 1.00338 1.00269 1.00205 1.00143 1.00085 1.0003 0.999769 0.999255 0.998756 0.998267 0.997787 0.997314 0.996846 0.996382 0.995921 0.995462 0.995005 0.994551 0.994098 0.993647 0.993196 0.992747 0.992298 0.99185 0.991402 0.990954 0.990505 0.990055 0.989604 0.989152 0.988698 0.988242 0.987784 0.987324 0.986861 0.986397 0.985931 0.985464 0.984995 0.984525 0.984055 0.983586 0.983117 0.98265 0.982185 0.981723 0.981266 0.980813 0.980365 0.979923 0.979488 0.979059 0.978637 0.978221 0.977811 0.977406 0.977005 0.976605 0.976206 0.975804 0.975395 0.974976 0.974542 0.974087 0.973604 0.973085 0.972522 0.971902 0.971211 0.97043 0.969549 0.968566 0.967439 0.96614 0.964614 0.96245 0.960406 0.958582 0.958582 
1.03324 1.03247 1.03194 1.03244 1.03211 1.03154 1.03132 1.03107 1.03071 1.03034 1.02998 1.02961 1.02923 1.02885 1.02846 1.02807 1.02767 1.02727 1.02685 1.02643 1.02599 1.02554 1.02507 1.02458 1.02407 1.02353 1.02296 1.02236 1.02173 1.02106 1.02036 1.01962 1.01884 1.01803 1.01718 1.01629 1.01538 1.01444 1.01348 1.0125 1.01151 1.01053 1.00955 1.00859 1.00765 1.00674 1.00587 1.00504 1.00425 1.0035 1.0028 1.00214 1.00152 1.00092 1.00036 0.999819 0.999298 0.998793 0.9983 0.997817 0.99734 0.99687 0.996403 0.995939 0.995478 0.995018 0.99456 0.994103 0.993646 0.99319 0.992734 0.992279 0.991822 0.991365 0.990906 0.990446 0.989984 0.98952 0.989053 0.988584 0.988112 0.987638 0.987161 0.986682 0.986201 0.985718 0.985234 0.984749 0.984263 0.983778 0.983294 0.982812 0.982332 0.981855 0.981383 0.980915 0.980452 0.979996 0.979546 0.979102 0.978666 0.978236 0.977812 0.977394 0.976981 0.976572 0.976165 0.975758 0.975349 0.974933 0.974509 0.97407 0.973611 0.973127 0.972609 0.972048 0.971432 0.970751 0.96999 0.969125 0.968147 0.967049 0.965771 0.964328 0.962553 0.960739 0.959348 0.959348 
1.03175 1.0324 1.0325 1.03222 1.03177 1.03162 1.03139 1.031 1.03065 1.03031 1.02994 1.02955 1.02917 1.02878 1.02838 1.02798 1.02758 1.02716 1.02674 1.02631 1.02587 1.02541 1.02492 1.02442 1.0239 1.02335 1.02277 1.02216 1.02152 1.02085 1.02015 1.01942 1.01866 1.01787 1.01704 1.01619 1.01532 1.01442 1.0135 1.01256 1.01161 1.01066 1.00971 1.00876 1.00783 1.00693 1.00605 1.00521 1.00441 1.00365 1.00294 1.00226 1.00162 1.00101 1.00043 0.999882 0.999352 0.99884 0.998341 0.997853 0.997373 0.996899 0.996428 0.995961 0.995496 0.995032 0.994569 0.994107 0.993644 0.993181 0.992717 0.992252 0.991785 0.991316 0.990844 0.99037 0.989893 0.989413 0.98893 0.988443 0.987953 0.98746 0.986964 0.986465 0.985965 0.985462 0.984959 0.984456 0.983953 0.983452 0.982952 0.982455 0.981962 0.981473 0.980988 0.98051 0.980037 0.979571 0.979112 0.97866 0.978216 0.977777 0.977346 0.97692 0.976499 0.976082 0.975667 0.975252 0.974835 0.974413 0.973983 0.973541 0.97308 0.972596 0.97208 0.971525 0.970918 0.970248 0.969503 0.968669 0.967724 0.966656 0.965411 0.96402 0.962592 0.960998 0.959439 0.959439 
1.03195 1.03239 1.03231 1.03202 1.03187 1.03166 1.0313 1.03096 1.03064 1.03027 1.02989 1.0295 1.0291 1.0287 1.0283 1.02789 1.02748 1.02706 1.02663 1.02619 1.02573 1.02526 1.02476 1.02425 1.02371 1.02315 1.02256 1.02195 1.0213 1.02064 1.01994 1.01922 1.01847 1.01771 1.01691 1.0161 1.01526 1.0144 1.01353 1.01263 1.01172 1.0108 1.00988 1.00896 1.00804 1.00714 1.00627 1.00542 1.00461 1.00383 1.00309 1.0024 1.00174 1.00111 1.00052 0.99996 0.999419 0.998898 0.998392 0.997897 0.997412 0.996932 0.996458 0.995986 0.995516 0.995047 0.994579 0.994109 0.993639 0.993167 0.992693 0.992216 0.991737 0.991254 0.990768 0.990277 0.989783 0.989284 0.988781 0.988274 0.987763 0.987249 0.986732 0.986212 0.985691 0.985169 0.984646 0.984124 0.983603 0.983084 0.982568 0.982056 0.981549 0.981047 0.980551 0.980062 0.979579 0.979104 0.978636 0.978175 0.977721 0.977275 0.976835 0.9764 0.975971 0.975545 0.975122 0.9747 0.974276 0.973848 0.973413 0.972967 0.972506 0.972023 0.971511 0.970963 0.970369 0.969716 0.968991 0.968182 0.96727 0.966245 0.965098 0.9638 0.962447 0.96101 0.959487 0.959487 
1.0321 1.03232 1.03219 1.03207 1.03189 1.03158 1.03128 1.03097 1.03061 1.03023 1.02984 1.02945 1.02904 1.02863 1.02822 1.0278 1.02737 1.02694 1.0265 1.02605 1.02558 1.0251 1.02459 1.02406 1.02351 1.02294 1.02234 1.02172 1.02108 1.02041 1.01972 1.01902 1.01829 1.01755 1.01678 1.01601 1.01521 1.0144 1.01357 1.01272 1.01185 1.01097 1.01007 1.00917 1.00828 1.00738 1.00651 1.00565 1.00483 1.00403 1.00328 1.00256 1.00188 1.00124 1.00063 1.00005 0.999499 0.998967 0.998451 0.997949 0.997457 0.996972 0.996491 0.996014 0.995539 0.995063 0.994587 0.99411 0.99363 0.993148 0.992662 0.992172 0.991678 0.991179 0.990675 0.990166 0.989651 0.989132 0.988608 0.988079 0.987546 0.987009 0.986469 0.985928 0.985385 0.984841 0.984299 0.983757 0.983218 0.982683 0.982151 0.981625 0.981104 0.980589 0.980082 0.979582 0.979089 0.978604 0.978127 0.977657 0.977195 0.97674 0.976291 0.975848 0.97541 0.974976 0.974544 0.974114 0.973684 0.97325 0.972811 0.972363 0.971902 0.971421 0.970915 0.970376 0.969794 0.969159 0.968459 0.967679 0.966805 0.965821 0.964738 0.963542 0.962232 0.960879 0.959475 0.959475 
1.03197 1.03231 1.03223 1.03207 1.03184 1.03158 1.0313 1.03096 1.03059 1.03021 1.02981 1.0294 1.02898 1.02856 1.02813 1.0277 1.02726 1.02682 1.02637 1.0259 1.02542 1.02492 1.0244 1.02387 1.0233 1.02272 1.02211 1.02149 1.02084 1.02018 1.01951 1.01882 1.01811 1.0174 1.01667 1.01593 1.01517 1.01441 1.01362 1.01281 1.01199 1.01115 1.01029 1.00941 1.00853 1.00765 1.00677 1.00591 1.00508 1.00427 1.00349 1.00275 1.00205 1.00139 1.00076 1.00016 0.999594 0.999048 0.998521 0.998009 0.997509 0.997016 0.996529 0.996045 0.995563 0.99508 0.994595 0.994108 0.993617 0.993122 0.992622 0.992117 0.991606 0.991088 0.990565 0.990035 0.989499 0.988957 0.98841 0.987858 0.987301 0.986741 0.986179 0.985615 0.98505 0.984486 0.983924 0.983364 0.982807 0.982255 0.981709 0.981169 0.980635 0.980109 0.97959 0.97908 0.978578 0.978084 0.977598 0.977119 0.976648 0.976184 0.975726 0.975274 0.974827 0.974385 0.973945 0.973508 0.973071 0.972632 0.97219 0.97174 0.971279 0.970802 0.970302 0.969773 0.969205 0.968589 0.967911 0.96716 0.966326 0.965392 0.964353 0.963221 0.961981 0.960673 0.959328 0.959328 
1.032 1.03233 1.03223 1.03207 1.03185 1.0316 1.03129 1.03094 1.03058 1.03019 1.02978 1.02935 1.02893 1.02849 1.02805 1.0276 1.02715 1.0267 1.02623 1.02575 1.02525 1.02474 1.02421 1.02366 1.02308 1.02249 1.02188 1.02125 1.02061 1.01996 1.01929 1.01862 1.01794 1.01726 1.01656 1.01586 1.01515 1.01443 1.01369 1.01293 1.01215 1.01134 1.01051 1.00967 1.00881 1.00794 1.00706 1.0062 1.00535 1.00453 1.00373 1.00297 1.00225 1.00156 1.00091 1.00029 0.999705 0.999143 0.998603 0.998079 0.997569 0.997067 0.996572 0.996079 0.995588 0.995096 0.994601 0.994102 0.993598 0.993089 0.992573 0.99205 0.99152 0.990983 0.990438 0.989886 0.989327 0.988761 0.98819 0.987613 0.987033 0.98645 0.985864 0.985278 0.984693 0.984109 0.983527 0.98295 0.982377 0.98181 0.98125 0.980697 0.980152 0.979615 0.979087 0.978567 0.978056 0.977553 0.977058 0.97657 0.976091 0.975617 0.975151 0.97469 0.974234 0.973782 0.973335 0.97289 0.972447 0.972004 0.971558 0.971108 0.970648 0.970175 0.969682 0.969163 0.968609 0.968011 0.967357 0.966634 0.965832 0.964942 0.963949 0.96286 0.961678 0.960412 0.959095 0.959095 
1.03206 1.03235 1.03225 1.03209 1.03187 1.0316 1.03129 1.03095 1.03057 1.03017 1.02975 1.02931 1.02887 1.02842 1.02796 1.0275 1.02704 1.02656 1.02608 1.02558 1.02507 1.02454 1.024 1.02344 1.02285 1.02226 1.02164 1.02102 1.02038 1.01974 1.01909 1.01844 1.01779 1.01714 1.01648 1.01582 1.01515 1.01447 1.01377 1.01306 1.01232 1.01155 1.01076 1.00994 1.0091 1.00824 1.00738 1.00651 1.00565 1.00481 1.004 1.00322 1.00247 1.00176 1.00108 1.00044 0.999834 0.999255 0.998698 0.998161 0.997638 0.997125 0.996619 0.996117 0.995615 0.995111 0.994604 0.994092 0.993574 0.993048 0.992514 0.991972 0.991421 0.990862 0.990294 0.989718 0.989134 0.988544 0.987949 0.987348 0.986744 0.986138 0.98553 0.984923 0.984318 0.983715 0.983117 0.982523 0.981936 0.981356 0.980783 0.980219 0.979663 0.979117 0.978579 0.97805 0.97753 0.977018 0.976515 0.976019 0.97553 0.975048 0.974572 0.974101 0.973637 0.973177 0.972722 0.97227 0.971822 0.971374 0.970926 0.970475 0.970017 0.969548 0.969063 0.968554 0.968013 0.967432 0.9668 0.966104 0.965333 0.964477 0.963526 0.962475 0.961333 0.960105 0.958812 0.958812 
1.03209 1.03238 1.03228 1.03211 1.03189 1.03162 1.0313 1.03095 1.03056 1.03015 1.02972 1.02927 1.02881 1.02835 1.02788 1.0274 1.02691 1.02642 1.02592 1.02541 1.02488 1.02434 1.02378 1.02321 1.02262 1.02202 1.02141 1.02079 1.02016 1.01954 1.01891 1.01828 1.01766 1.01704 1.01642 1.01579 1.01516 1.01453 1.01387 1.0132 1.0125 1.01177 1.01101 1.01023 1.00941 1.00857 1.00771 1.00684 1.00598 1.00513 1.0043 1.00349 1.00272 1.00198 1.00128 1.00061 0.999984 0.999383 0.998809 0.998255 0.997717 0.997192 0.996673 0.996158 0.995644 0.995127 0.994606 0.994078 0.993543 0.992999 0.992445 0.991882 0.991309 0.990726 0.990134 0.989533 0.988925 0.98831 0.98769 0.987066 0.986439 0.98581 0.985182 0.984555 0.983932 0.983312 0.982698 0.98209 0.98149 0.980898 0.980314 0.97974 0.979175 0.97862 0.978073 0.977536 0.977008 0.976488 0.975975 0.97547 0.974972 0.974481 0.973996 0.973516 0.973043 0.972575 0.972112 0.971655 0.971201 0.97075 0.9703 0.969849 0.969393 0.968929 0.96845 0.967951 0.967423 0.966858 0.966245 0.965573 0.964829 0.964003 0.963086 0.962071 0.96096 0.959763 0.958494 0.958494 
1.03214 1.03242 1.03231 1.03214 1.03191 1.03164 1.03132 1.03095 1.03056 1.03013 1.02969 1.02923 1.02875 1.02827 1.02778 1.02729 1.02678 1.02627 1.02575 1.02522 1.02468 1.02413 1.02356 1.02298 1.02238 1.02179 1.02118 1.02057 1.01996 1.01935 1.01874 1.01814 1.01755 1.01696 1.01637 1.01579 1.0152 1.0146 1.01399 1.01335 1.01269 1.012 1.01128 1.01052 1.00973 1.00891 1.00806 1.0072 1.00633 1.00547 1.00462 1.00379 1.00299 1.00223 1.0015 1.00081 1.00015 0.999532 0.998936 0.998364 0.99781 0.997268 0.996735 0.996205 0.995676 0.995144 0.994606 0.994061 0.993507 0.992943 0.992368 0.991781 0.991184 0.990577 0.98996 0.989334 0.988701 0.988062 0.987418 0.98677 0.986122 0.985473 0.984825 0.98418 0.98354 0.982905 0.982277 0.981657 0.981045 0.980443 0.97985 0.979266 0.978693 0.978129 0.977575 0.97703 0.976493 0.975964 0.975443 0.974929 0.974422 0.973921 0.973426 0.972938 0.972456 0.971981 0.971511 0.971048 0.97059 0.970136 0.969685 0.969235 0.968781 0.968321 0.967848 0.967358 0.966841 0.966291 0.965695 0.965043 0.964324 0.963525 0.962635 0.961651 0.960568 0.959396 0.958149 0.958149 
1.03219 1.03245 1.03234 1.03216 1.03193 1.03165 1.03132 1.03095 1.03055 1.03011 1.02965 1.02918 1.02869 1.02819 1.02768 1.02717 1.02664 1.02612 1.02558 1.02503 1.02447 1.02391 1.02333 1.02274 1.02215 1.02156 1.02096 1.02036 1.01977 1.01918 1.0186 1.01803 1.01746 1.01691 1.01635 1.0158 1.01525 1.01469 1.01411 1.01352 1.0129 1.01224 1.01155 1.01082 1.01006 1.00925 1.00842 1.00757 1.0067 1.00583 1.00496 1.00411 1.00329 1.0025 1.00175 1.00103 1.00035 0.999702 0.999084 0.99849 0.997917 0.997357 0.996806 0.99626 0.995713 0.995164 0.994607 0.994042 0.993467 0.992881 0.992282 0.991672 0.99105 0.990418 0.989775 0.989124 0.988467 0.987803 0.987136 0.986467 0.985798 0.98513 0.984464 0.983803 0.983148 0.9825 0.98186 0.981229 0.980607 0.979995 0.979394 0.978802 0.978221 0.97765 0.977087 0.976534 0.975989 0.975451 0.974921 0.974398 0.973881 0.973371 0.972867 0.97237 0.97188 0.971398 0.970922 0.970454 0.969992 0.969536 0.969084 0.968635 0.968183 0.967727 0.96726 0.966777 0.966271 0.965733 0.965152 0.964518 0.963819 0.963043 0.962178 0.961218 0.96016 0.959011 0.957782 0.957782 
1.03223 1.03248 1.03236 1.03218 1.03195 1.03166 1.03132 1.03094 1.03053 1.03008 1.02961 1.02912 1.02862 1.0281 1.02757 1.02704 1.0265 1.02595 1.02539 1.02483 1.02426 1.02369 1.0231 1.02252 1.02193 1.02134 1.02075 1.02017 1.0196 1.01904 1.01848 1.01794 1.0174 1.01688 1.01636 1.01584 1.01532 1.0148 1.01426 1.0137 1.01311 1.01249 1.01183 1.01113 1.01039 1.00961 1.00879 1.00795 1.00708 1.0062 1.00533 1.00446 1.00362 1.0028 1.00202 1.00128 1.00057 0.999895 0.999252 0.998636 0.99804 0.99746 0.99689 0.996324 0.995758 0.995188 0.994611 0.994024 0.993426 0.992815 0.992192 0.991557 0.990909 0.990251 0.989583 0.988908 0.988226 0.987539 0.98685 0.986161 0.985472 0.984787 0.984105 0.98343 0.982762 0.982102 0.981451 0.98081 0.98018 0.979559 0.97895 0.978351 0.977761 0.977182 0.976612 0.97605 0.975496 0.974949 0.974409 0.973877 0.97335 0.972831 0.972319 0.971814 0.971316 0.970827 0.970346 0.969874 0.96941 0.968952 0.9685 0.968051 0.967602 0.967149 0.966687 0.966211 0.965713 0.965185 0.964617 0.963998 0.963315 0.962558 0.961714 0.960775 0.959739 0.958609 0.957398 0.957398 
1.03226 1.0325 1.03237 1.03219 1.03195 1.03166 1.03131 1.03092 1.0305 1.03004 1.02956 1.02906 1.02853 1.028 1.02746 1.0269 1.02634 1.02578 1.02521 1.02463 1.02405 1.02347 1.02288 1.0223 1.02172 1.02114 1.02057 1.02001 1.01946 1.01892 1.01839 1.01788 1.01737 1.01688 1.01639 1.01591 1.01542 1.01492 1.01441 1.01388 1.01333 1.01274 1.01211 1.01145 1.01073 1.00998 1.00918 1.00834 1.00748 1.0066 1.00572 1.00484 1.00397 1.00313 1.00233 1.00155 1.00082 1.00011 0.999445 0.998803 0.998184 0.997581 0.996988 0.9964 0.995812 0.995219 0.994619 0.994009 0.993386 0.99275 0.992101 0.99144 0.990766 0.990082 0.989389 0.988688 0.987983 0.987274 0.986565 0.985856 0.98515 0.984448 0.983753 0.983064 0.982385 0.981714 0.981054 0.980404 0.979765 0.979137 0.978519 0.977912 0.977315 0.976727 0.976148 0.975577 0.975014 0.974458 0.973909 0.973366 0.97283 0.972302 0.971781 0.971269 0.970765 0.97027 0.969785 0.96931 0.968843 0.968385 0.967932 0.967484 0.967037 0.966587 0.966129 0.965658 0.965166 0.964646 0.964088 0.963481 0.962814 0.962072 0.961246 0.960325 0.959308 0.958195 0.957 0.957 
1.03228 1.0325 1.03237 1.03218 1.03194 1.03164 1.03129 1.03089 1.03046 1.02999 1.02949 1.02897 1.02844 1.02789 1.02733 1.02676 1.02618 1.0256 1.02502 1.02443 1.02385 1.02326 1.02268 1.0221 1.02153 1.02097 1.02042 1.01988 1.01935 1.01884 1.01834 1.01785 1.01738 1.01691 1.01645 1.01599 1.01553 1.01507 1.01459 1.01409 1.01356 1.013 1.0124 1.01177 1.01108 1.01035 1.00957 1.00875 1.00789 1.00702 1.00613 1.00523 1.00435 1.00349 1.00266 1.00186 1.00109 1.00036 0.999664 0.998995 0.99835 0.997722 0.997104 0.996492 0.99588 0.995262 0.994637 0.994 0.993351 0.992689 0.992013 0.991324 0.990624 0.989914 0.989196 0.988471 0.987743 0.987013 0.986284 0.985557 0.984835 0.984119 0.98341 0.98271 0.982019 0.981339 0.980669 0.980011 0.979364 0.978727 0.978102 0.977487 0.976881 0.976285 0.975696 0.975116 0.974543 0.973977 0.973417 0.972865 0.97232 0.971783 0.971254 0.970735 0.970225 0.969726 0.969238 0.96876 0.968292 0.967833 0.967381 0.966934 0.966489 0.966041 0.965585 0.965118 0.964631 0.964117 0.963567 0.962969 0.962313 0.961584 0.960773 0.959868 0.958866 0.957769 0.956588 0.956588 
1.03228 1.03248 1.03235 1.03215 1.0319 1.0316 1.03124 1.03084 1.03039 1.02991 1.02941 1.02888 1.02832 1.02776 1.02718 1.0266 1.02601 1.02542 1.02483 1.02424 1.02365 1.02307 1.02249 1.02193 1.02137 1.02083 1.0203 1.01978 1.01928 1.01879 1.01832 1.01786 1.01742 1.01698 1.01654 1.01611 1.01568 1.01523 1.01478 1.0143 1.0138 1.01327 1.0127 1.01209 1.01143 1.01072 1.00996 1.00916 1.00832 1.00745 1.00655 1.00565 1.00476 1.00388 1.00302 1.00219 1.0014 1.00064 0.999912 0.999215 0.998542 0.997887 0.997243 0.996604 0.995964 0.99532 0.994668 0.994004 0.993327 0.992636 0.991932 0.991216 0.990489 0.989752 0.989009 0.988261 0.987511 0.98676 0.986012 0.985268 0.984531 0.9838 0.983079 0.982367 0.981667 0.980977 0.980298 0.979631 0.978976 0.978331 0.977697 0.977073 0.976458 0.975852 0.975253 0.974663 0.974079 0.973503 0.972933 0.972371 0.971818 0.971273 0.970737 0.970212 0.969698 0.969195 0.968704 0.968225 0.967757 0.967297 0.966846 0.966399 0.965955 0.965508 0.965054 0.964589 0.964105 0.963595 0.96305 0.96246 0.961812 0.961095 0.960295 0.959404 0.958416 0.957333 0.956164 0.956164 
1.03226 1.03243 1.0323 1.0321 1.03185 1.03153 1.03117 1.03076 1.03031 1.02982 1.0293 1.02876 1.0282 1.02762 1.02703 1.02644 1.02584 1.02525 1.02465 1.02406 1.02347 1.0229 1.02233 1.02178 1.02124 1.02072 1.02022 1.01973 1.01925 1.01879 1.01835 1.01792 1.01749 1.01708 1.01667 1.01626 1.01585 1.01543 1.01499 1.01454 1.01406 1.01356 1.01301 1.01243 1.01179 1.01111 1.01037 1.00959 1.00876 1.00789 1.007 1.0061 1.00519 1.00429 1.00341 1.00256 1.00174 1.00095 1.00019 0.999466 0.998764 0.998079 0.997406 0.996739 0.996071 0.995398 0.994716 0.994023 0.993317 0.992597 0.991864 0.991119 0.990364 0.989601 0.988833 0.988061 0.987289 0.986519 0.985752 0.984992 0.984239 0.983495 0.982761 0.982039 0.981327 0.980628 0.97994 0.979264 0.978599 0.977945 0.977301 0.976667 0.976042 0.975426 0.974817 0.974215 0.973621 0.973034 0.972454 0.971883 0.971321 0.970769 0.970228 0.969698 0.96918 0.968675 0.968183 0.967703 0.967234 0.966776 0.966324 0.965878 0.965433 0.964987 0.964533 0.964068 0.963586 0.963078 0.962537 0.961953 0.961312 0.960603 0.959814 0.958934 0.957958 0.956887 0.955731 0.955731 
1.03221 1.03235 1.03222 1.03202 1.03176 1.03144 1.03107 1.03066 1.0302 1.0297 1.02917 1.02862 1.02805 1.02747 1.02687 1.02628 1.02567 1.02507 1.02448 1.0239 1.02332 1.02276 1.02221 1.02168 1.02116 1.02066 1.02018 1.01972 1.01927 1.01884 1.01842 1.01801 1.01761 1.01722 1.01683 1.01644 1.01605 1.01565 1.01523 1.0148 1.01434 1.01386 1.01334 1.01277 1.01216 1.0115 1.01079 1.01003 1.00921 1.00836 1.00747 1.00656 1.00565 1.00473 1.00383 1.00296 1.00211 1.00129 1.00051 0.999751 0.999018 0.998303 0.997599 0.996901 0.996203 0.995499 0.994787 0.994062 0.993325 0.992575 0.991812 0.991038 0.990255 0.989465 0.988671 0.987876 0.987081 0.98629 0.985505 0.984728 0.98396 0.983202 0.982456 0.981722 0.980999 0.980289 0.979591 0.978905 0.97823 0.977566 0.976912 0.976267 0.97563 0.975002 0.974382 0.973769 0.973164 0.972567 0.971978 0.971398 0.970829 0.970271 0.969725 0.969191 0.968672 0.968165 0.967673 0.967193 0.966724 0.966265 0.965814 0.965368 0.964922 0.964475 0.964021 0.963555 0.963073 0.962567 0.962028 0.961447 0.960812 0.96011 0.959329 0.958459 0.957494 0.956434 0.955289 0.955289 
1.03213 1.03224 1.0321 1.0319 1.03164 1.03132 1.03095 1.03053 1.03006 1.02956 1.02903 1.02847 1.02789 1.02731 1.02671 1.02611 1.02551 1.02492 1.02433 1.02375 1.02319 1.02265 1.02212 1.02161 1.02112 1.02065 1.02019 1.01976 1.01934 1.01893 1.01854 1.01816 1.01778 1.01741 1.01704 1.01667 1.01629 1.0159 1.0155 1.01509 1.01465 1.01418 1.01368 1.01314 1.01255 1.01192 1.01123 1.01048 1.00969 1.00884 1.00796 1.00706 1.00613 1.00521 1.00429 1.0034 1.00252 1.00168 1.00086 1.00007 0.999308 0.99856 0.997825 0.997095 0.996364 0.995628 0.994883 0.994126 0.993357 0.992575 0.991781 0.990976 0.990164 0.989346 0.988525 0.987705 0.986888 0.986076 0.985272 0.984477 0.983693 0.982921 0.982161 0.981414 0.980679 0.979958 0.979248 0.978551 0.977864 0.977189 0.976522 0.975866 0.975217 0.974577 0.973945 0.973321 0.972705 0.972098 0.971501 0.970914 0.970338 0.969776 0.969226 0.968691 0.96817 0.967663 0.967171 0.966692 0.966223 0.965765 0.965313 0.964866 0.96442 0.963971 0.963515 0.963048 0.962564 0.962058 0.96152 0.960942 0.960311 0.959615 0.958841 0.95798 0.957024 0.955975 0.95484 0.95484 
1.032 1.03208 1.03194 1.03174 1.03148 1.03116 1.03079 1.03036 1.0299 1.02939 1.02886 1.0283 1.02772 1.02714 1.02654 1.02595 1.02536 1.02477 1.0242 1.02364 1.0231 1.02258 1.02207 1.02159 1.02112 1.02068 1.02026 1.01985 1.01946 1.01908 1.01871 1.01835 1.01799 1.01764 1.01729 1.01693 1.01657 1.0162 1.01581 1.01541 1.01498 1.01453 1.01405 1.01353 1.01297 1.01235 1.01168 1.01096 1.01018 1.00935 1.00848 1.00758 1.00666 1.00572 1.00479 1.00387 1.00297 1.0021 1.00125 1.00043 0.999635 0.998854 0.998085 0.997321 0.996557 0.995787 0.995008 0.994217 0.993415 0.992599 0.991772 0.990936 0.990092 0.989245 0.988397 0.987551 0.986709 0.985875 0.98505 0.984237 0.983435 0.982646 0.981871 0.98111 0.980362 0.979628 0.978905 0.978195 0.977496 0.976807 0.976128 0.975459 0.974798 0.974145 0.973502 0.972867 0.972241 0.971625 0.97102 0.970427 0.969847 0.969281 0.96873 0.968194 0.967673 0.967168 0.966676 0.966198 0.96573 0.965272 0.96482 0.964371 0.963923 0.963471 0.963013 0.962544 0.962059 0.961552 0.961014 0.960438 0.95981 0.959119 0.958352 0.957499 0.956551 0.955511 0.954387 0.954387 
1.03183 1.03187 1.03174 1.03154 1.03128 1.03097 1.03059 1.03017 1.0297 1.0292 1.02867 1.02812 1.02755 1.02697 1.02638 1.0258 1.02522 1.02465 1.0241 1.02356 1.02304 1.02254 1.02207 1.02162 1.02118 1.02077 1.02037 1.02 1.01963 1.01928 1.01893 1.0186 1.01826 1.01792 1.01759 1.01724 1.01689 1.01653 1.01616 1.01577 1.01536 1.01492 1.01445 1.01395 1.0134 1.01281 1.01216 1.01146 1.0107 1.00989 1.00903 1.00814 1.00721 1.00627 1.00532 1.00439 1.00346 1.00256 1.00169 1.00083 1 0.999186 0.998381 0.997582 0.996782 0.995977 0.995163 0.994336 0.993499 0.992648 0.991787 0.990917 0.990041 0.989162 0.988285 0.987411 0.986543 0.985685 0.984837 0.984002 0.983181 0.982374 0.981583 0.980805 0.980042 0.979293 0.978556 0.977831 0.977118 0.976416 0.975723 0.97504 0.974367 0.973702 0.973047 0.972402 0.971767 0.971144 0.970534 0.969936 0.969354 0.968786 0.968235 0.967699 0.96718 0.966676 0.966186 0.965709 0.965242 0.964784 0.964331 0.96388 0.96343 0.962976 0.962515 0.962043 0.961556 0.961047 0.96051 0.959935 0.959311 0.958624 0.957863 0.957016 0.956077 0.955046 0.953931 0.953931 
1.03161 1.03161 1.03148 1.03129 1.03104 1.03073 1.03036 1.02994 1.02948 1.02899 1.02847 1.02792 1.02736 1.02679 1.02622 1.02566 1.0251 1.02455 1.02402 1.02351 1.02302 1.02256 1.02211 1.02169 1.02129 1.02091 1.02055 1.0202 1.01986 1.01953 1.01921 1.01889 1.01857 1.01825 1.01793 1.0176 1.01726 1.01691 1.01654 1.01616 1.01576 1.01534 1.01489 1.0144 1.01387 1.0133 1.01267 1.01199 1.01126 1.01046 1.00962 1.00873 1.0078 1.00685 1.0059 1.00494 1.00399 1.00306 1.00215 1.00127 1.0004 0.999551 0.99871 0.997875 0.997038 0.996196 0.995346 0.994483 0.993607 0.992722 0.991823 0.990918 0.990008 0.989096 0.988185 0.987281 0.986385 0.985499 0.984627 0.983768 0.982925 0.982098 0.981287 0.980492 0.979711 0.978945 0.978193 0.977453 0.976725 0.976007 0.975301 0.974605 0.973919 0.973243 0.972578 0.971924 0.971282 0.970653 0.970038 0.969439 0.968855 0.968288 0.967738 0.967205 0.966688 0.966187 0.965699 0.965223 0.964757 0.964298 0.963844 0.963392 0.962939 0.962482 0.962018 0.961544 0.961055 0.960545 0.960009 0.959435 0.958813 0.958131 0.957375 0.956535 0.955603 0.95458 0.953474 0.953474 
1.03134 1.03129 1.03117 1.03099 1.03075 1.03045 1.03009 1.02968 1.02924 1.02875 1.02825 1.02772 1.02717 1.02663 1.02608 1.02553 1.025 1.02448 1.02398 1.0235 1.02305 1.02261 1.0222 1.02182 1.02145 1.0211 1.02077 1.02045 1.02014 1.01984 1.01954 1.01924 1.01894 1.01863 1.01832 1.018 1.01767 1.01733 1.01697 1.0166 1.01621 1.01579 1.01535 1.01488 1.01437 1.01382 1.01322 1.01256 1.01184 1.01106 1.01023 1.00935 1.00843 1.00748 1.0065 1.00553 1.00456 1.0036 1.00266 1.00174 1.00083 0.999944 0.999069 0.998196 0.997321 0.99644 0.995552 0.994655 0.993738 0.992814 0.99188 0.990935 0.989987 0.98904 0.988094 0.987156 0.986229 0.985312 0.984413 0.983528 0.98266 0.981811 0.980978 0.980162 0.979363 0.978578 0.977808 0.977052 0.976308 0.975576 0.974856 0.974147 0.973449 0.972763 0.97209 0.971429 0.970782 0.97015 0.969533 0.968933 0.968351 0.967786 0.967239 0.966709 0.966196 0.965698 0.965212 0.964738 0.964273 0.963814 0.963359 0.962905 0.96245 0.96199 0.961524 0.961047 0.960556 0.960046 0.95951 0.958938 0.958319 0.957641 0.95689 0.956056 0.955131 0.954116 0.953019 0.953019 
1.031 1.03091 1.03081 1.03064 1.03041 1.03013 1.02978 1.02939 1.02896 1.0285 1.02801 1.02751 1.02699 1.02647 1.02594 1.02543 1.02493 1.02444 1.02398 1.02353 1.02311 1.02271 1.02234 1.02199 1.02166 1.02134 1.02104 1.02075 1.02047 1.02019 1.01991 1.01963 1.01934 1.01905 1.01875 1.01844 1.01812 1.01778 1.01743 1.01707 1.01668 1.01628 1.01586 1.0154 1.01491 1.01437 1.01379 1.01315 1.01246 1.0117 1.01088 1.01001 1.00909 1.00813 1.00714 1.00615 1.00515 1.00416 1.00318 1.00223 1.00129 1.00036 0.999452 0.998533 0.997622 0.996707 0.995773 0.994838 0.993889 0.992918 0.991946 0.990963 0.989972 0.988985 0.988005 0.987027 0.986067 0.985119 0.984185 0.983273 0.982377 0.981502 0.980646 0.979807 0.978987 0.978183 0.977395 0.976622 0.975862 0.975116 0.974383 0.973662 0.972955 0.972261 0.97158 0.970915 0.970265 0.969632 0.969016 0.968419 0.967839 0.967279 0.966736 0.966211 0.965702 0.965207 0.964725 0.964253 0.963789 0.963331 0.962875 0.962419 0.961961 0.961499 0.96103 0.960552 0.96006 0.95955 0.959014 0.958445 0.95783 0.957156 0.95641 0.955582 0.954663 0.953656 0.952567 0.952567 