# vtk DataFile Version 3.0
LBM simulation at step 230
ASCII
DATASET STRUCTURED_POINTS
DIMENSIONS 256 256 1
ORIGIN 0 0 0
SPACING 1 1 1
POINT_DATA 65536
SCALARS density float
LOOKUP_TABLE default
0.741695 1.08832 1.13504 1.09275 1.08451 1.09329 1.09502 1.09316 1.09253 1.09264 1.09257 1.09237 1.09222 1.09213 1.09204 1.09195 1.09187 1.09181 1.09174 1.09168 1.09163 1.09157 1.09152 1.09147 1.09142 1.09138 1.09134 1.09129 1.09125 1.09122 1.09118 1.09114 1.09111 1.09108 1.09104 1.09101 1.09098 1.09095 1.09092 1.0909 1.09087 1.09084 1.09081 1.09079 1.09076 1.09074 1.09071 1.09069 1.09066 1.09064 1.09062 1.0906 1.09057 1.09055 1.09053 1.09051 1.09048 1.09046 1.09044 1.09042 1.0904 1.09038 1.09035 1.09033 1.09031 1.09029 1.09027 1.09025 1.09023 1.09021 1.09019 1.09016 1.09014 1.09012 1.0901 1.09008 1.09006 1.09003 1.09001 1.08999 1.08997 1.08994 1.08992 1.0899 1.08987 1.08985 1.08982 1.0898 1.08977 1.08975 1.08972 1.08969 1.08967 1.08964 1.08961 1.08958 1.08955 1.08952 1.08949 1.08946 1.08943 1.08939 1.08936 1.08932 1.08929 1.08925 1.08921 1.08917 1.08912 1.08907 1.08902 1.08896 1.08889 1.08881 1.08872 1.0886 1.08846 1.08829 1.08807 1.08781 1.08749 1.08708 1.08657 1.08591 1.08503 1.08383 1.08219 1.07993 1.07683 1.07269 1.06731 1.06062 1.05267 1.04372 1.0342 1.02464 1.01557 1.00743 1.00045 0.994726 0.99017 0.986626 0.983901 0.981804 0.980171 0.978869 0.977797 0.976882 0.976072 0.975332 0.974638 0.973976 0.973335 0.972709 0.972095 0.97149 0.970893 0.970302 0.969717 0.969138 0.968563 0.967993 0.967427 0.966865 0.966306 0.965751 0.965198 0.964649 0.964101 0.963556 0.963013 0.962472 0.961933 0.961395 0.960858 0.960323 0.959788 0.959254 0.958721 0.958188 0.957656 0.957123 0.956591 0.956058 0.955525 0.954992 0.954457 0.953922 0.953386 0.952849 0.952311 0.951771 0.951229 0.950686 0.95014 0.949593 0.949043 0.94849 0.947935 0.947376 0.946815 0.94625 0.945681 0.945109 0.944532 0.94395 0.943364 0.942773 0.942176 0.941574 0.940965 0.94035 0.939728 0.939099 0.938461 0.937815 0.93716 0.936495 0.935819 0.935133 0.934435 0.933723 0.932998 0.932258 0.931502 0.930728 0.929936 0.929122 0.928287 0.927427 0.926539 0.925623 0.924673 0.923687 0.922661 0.92159 0.920468 0.919289 0.918044 0.916724 0.915318 0.913811 0.912185 0.910417 0.908477 0.906331 0.903927 0.901151 0.897899 0.894256 0.889837 0.882625 0.873226 0.868358 0.846532 0.691477 
1.13141 1.06473 1.05977 1.0949 1.09832 1.09279 1.09187 1.09297 1.09304 1.09265 1.09244 1.09234 1.09224 1.09212 1.09202 1.09194 1.09187 1.0918 1.09173 1.09168 1.09162 1.09157 1.09151 1.09147 1.09141 1.09137 1.09133 1.09129 1.09124 1.09121 1.09117 1.09114 1.0911 1.09107 1.09103 1.09101 1.09097 1.09095 1.09091 1.09089 1.09086 1.09083 1.0908 1.09078 1.09075 1.09073 1.0907 1.09068 1.09065 1.09063 1.09061 1.09058 1.09056 1.09054 1.09052 1.09049 1.09047 1.09045 1.09043 1.09041 1.09038 1.09036 1.09034 1.09032 1.0903 1.09028 1.09025 1.09023 1.09021 1.09019 1.09017 1.09015 1.09012 1.0901 1.09008 1.09006 1.09004 1.09001 1.08999 1.08997 1.08994 1.08992 1.0899 1.08987 1.08985 1.08982 1.0898 1.08977 1.08975 1.08972 1.08969 1.08966 1.08964 1.08961 1.08958 1.08955 1.08952 1.08948 1.08945 1.08942 1.08938 1.08935 1.08931 1.08927 1.08923 1.08919 1.08915 1.08911 1.08906 1.089 1.08895 1.08888 1.08881 1.08872 1.08861 1.08849 1.08833 1.08814 1.0879 1.08761 1.08725 1.0868 1.08623 1.08549 1.08452 1.08322 1.08147 1.07911 1.07597 1.07187 1.06665 1.06025 1.0527 1.04419 1.03507 1.02578 1.01684 1.00868 1.00158 0.995666 0.990912 0.987184 0.984303 0.982084 0.98036 0.978992 0.977875 0.976929 0.976099 0.975346 0.974644 0.973976 0.973332 0.972705 0.972089 0.971484 0.970886 0.970295 0.96971 0.96913 0.968555 0.967985 0.967419 0.966856 0.966297 0.965742 0.965189 0.964639 0.964091 0.963546 0.963003 0.962462 0.961922 0.961384 0.960847 0.960311 0.959776 0.959242 0.958708 0.958175 0.957642 0.957109 0.956577 0.956044 0.95551 0.954976 0.954442 0.953906 0.95337 0.952832 0.952293 0.951753 0.951211 0.950667 0.950121 0.949573 0.949022 0.948469 0.947913 0.947354 0.946791 0.946226 0.945656 0.945083 0.944505 0.943923 0.943336 0.942743 0.942146 0.941542 0.940932 0.940316 0.939692 0.939061 0.938422 0.937774 0.937117 0.93645 0.935773 0.935084 0.934383 0.93367 0.932942 0.932198 0.931439 0.930662 0.929865 0.929048 0.928207 0.927342 0.926448 0.925525 0.924568 0.923574 0.922539 0.921457 0.920323 0.91913 0.91787 0.916532 0.915105 0.913572 0.911916 0.910113 0.908131 0.90592 0.903431 0.900628 0.897344 0.893137 0.888123 0.883293 0.875239 0.852272 0.829586 0.829586 
1.14066 1.06887 1.07769 1.09725 1.09417 1.09159 1.0926 1.09316 1.09279 1.09252 1.09243 1.09234 1.09221 1.0921 1.09201 1.09193 1.09185 1.09179 1.09172 1.09166 1.0916 1.09156 1.0915 1.09146 1.0914 1.09137 1.09132 1.09128 1.09123 1.0912 1.09116 1.09113 1.09109 1.09106 1.09102 1.091 1.09096 1.09094 1.0909 1.09088 1.09085 1.09082 1.09079 1.09077 1.09074 1.09072 1.09069 1.09067 1.09064 1.09062 1.09059 1.09057 1.09055 1.09053 1.0905 1.09048 1.09046 1.09044 1.09041 1.09039 1.09037 1.09035 1.09033 1.0903 1.09028 1.09026 1.09024 1.09022 1.09019 1.09017 1.09015 1.09013 1.09011 1.09008 1.09006 1.09004 1.09002 1.08999 1.08997 1.08995 1.08992 1.0899 1.08987 1.08985 1.08982 1.0898 1.08977 1.08974 1.08972 1.08969 1.08966 1.08963 1.0896 1.08957 1.08954 1.08951 1.08948 1.08944 1.08941 1.08937 1.08934 1.0893 1.08926 1.08922 1.08918 1.08913 1.08909 1.08904 1.08899 1.08893 1.08887 1.0888 1.08871 1.08862 1.0885 1.08836 1.08819 1.08798 1.08772 1.08739 1.08699 1.08649 1.08586 1.08505 1.084 1.08262 1.08081 1.07841 1.07529 1.07128 1.06626 1.06014 1.05293 1.04478 1.03595 1.02687 1.018 1.00979 1.00256 0.996484 0.991553 0.987665 0.98465 0.982326 0.980524 0.979101 0.977945 0.976973 0.976126 0.975362 0.974653 0.973981 0.973334 0.972705 0.972088 0.971482 0.970884 0.970292 0.969707 0.969127 0.968552 0.967981 0.967415 0.966852 0.966293 0.965737 0.965184 0.964634 0.964086 0.963541 0.962997 0.962456 0.961916 0.961377 0.96084 0.960304 0.959769 0.959234 0.9587 0.958167 0.957634 0.957101 0.956568 0.956034 0.9555 0.954966 0.954431 0.953895 0.953359 0.952821 0.952281 0.95174 0.951198 0.950654 0.950107 0.949558 0.949007 0.948454 0.947897 0.947338 0.946775 0.946208 0.945638 0.945064 0.944486 0.943903 0.943315 0.942722 0.942124 0.941519 0.940908 0.940291 0.939667 0.939034 0.938394 0.937745 0.937087 0.936419 0.93574 0.93505 0.934348 0.933632 0.932903 0.932158 0.931396 0.930617 0.929818 0.928998 0.928155 0.927286 0.92639 0.925464 0.924503 0.923506 0.922466 0.92138 0.920241 0.919043 0.917777 0.916433 0.915 0.913462 0.9118 0.909991 0.90801 0.905814 0.903328 0.900501 0.897364 0.893621 0.888497 0.882889 0.879084 0.869756 0.85383 0.85383 
1.05737 1.09327 1.10612 1.08847 1.08832 1.09363 1.09374 1.09251 1.0924 1.09256 1.09245 1.09227 1.09216 1.09208 1.09199 1.09191 1.09183 1.09177 1.0917 1.09165 1.09159 1.09154 1.09149 1.09145 1.09139 1.09136 1.0913 1.09127 1.09122 1.0912 1.09115 1.09112 1.09108 1.09105 1.09101 1.09099 1.09095 1.09093 1.09089 1.09087 1.09083 1.09081 1.09078 1.09076 1.09073 1.09071 1.09068 1.09066 1.09063 1.09061 1.09058 1.09056 1.09053 1.09051 1.09049 1.09047 1.09044 1.09042 1.0904 1.09038 1.09035 1.09033 1.09031 1.09029 1.09027 1.09024 1.09022 1.0902 1.09018 1.09016 1.09013 1.09011 1.09009 1.09006 1.09004 1.09002 1.08999 1.08997 1.08995 1.08992 1.0899 1.08987 1.08985 1.08982 1.0898 1.08977 1.08974 1.08971 1.08969 1.08966 1.08963 1.0896 1.08957 1.08954 1.0895 1.08947 1.08944 1.0894 1.08937 1.08933 1.08929 1.08925 1.08921 1.08917 1.08912 1.08907 1.08902 1.08897 1.08891 1.08885 1.08878 1.08871 1.08862 1.08851 1.08838 1.08823 1.08804 1.08781 1.08753 1.08718 1.08675 1.0862 1.08552 1.08466 1.08355 1.08211 1.08025 1.07784 1.07474 1.07082 1.06596 1.06007 1.05315 1.0453 1.03674 1.02785 1.01906 1.01083 1.0035 0.997266 0.992173 0.988132 0.98499 0.982565 0.980687 0.97921 0.978016 0.97702 0.976156 0.975381 0.974665 0.973989 0.97334 0.972709 0.972092 0.971485 0.970886 0.970295 0.969709 0.969129 0.968553 0.967982 0.967416 0.966853 0.966293 0.965737 0.965184 0.964634 0.964086 0.96354 0.962996 0.962454 0.961914 0.961375 0.960838 0.960302 0.959766 0.959232 0.958697 0.958164 0.95763 0.957097 0.956564 0.95603 0.955496 0.954961 0.954426 0.95389 0.953353 0.952815 0.952275 0.951734 0.951191 0.950646 0.9501 0.949551 0.948999 0.948445 0.947888 0.947328 0.946765 0.946198 0.945628 0.945053 0.944474 0.943891 0.943303 0.942709 0.94211 0.941505 0.940894 0.940276 0.939651 0.939019 0.938378 0.937728 0.93707 0.936401 0.935722 0.935031 0.934328 0.933612 0.932882 0.932136 0.931374 0.930594 0.929794 0.928974 0.92813 0.927261 0.926365 0.925438 0.924478 0.923481 0.922442 0.921357 0.92022 0.919025 0.917763 0.916426 0.915001 0.913475 0.911832 0.910049 0.908096 0.905953 0.903587 0.900871 0.897719 0.894409 0.890754 0.884896 0.878037 0.875445 0.872374 0.872374 
1.09694 1.09674 1.08916 1.08923 1.09425 1.09326 1.09204 1.09241 1.09269 1.09249 1.09229 1.09221 1.09213 1.09204 1.09195 1.09188 1.0918 1.09174 1.09168 1.09163 1.09157 1.09153 1.09147 1.09143 1.09138 1.09134 1.09129 1.09126 1.09121 1.09118 1.09113 1.09111 1.09106 1.09104 1.091 1.09098 1.09094 1.09092 1.09088 1.09086 1.09082 1.0908 1.09077 1.09075 1.09071 1.0907 1.09066 1.09065 1.09061 1.0906 1.09057 1.09055 1.09052 1.0905 1.09047 1.09045 1.09043 1.09041 1.09038 1.09036 1.09034 1.09032 1.09029 1.09027 1.09025 1.09023 1.0902 1.09018 1.09016 1.09014 1.09011 1.09009 1.09007 1.09004 1.09002 1.09 1.08997 1.08995 1.08992 1.0899 1.08987 1.08985 1.08982 1.0898 1.08977 1.08974 1.08971 1.08968 1.08966 1.08963 1.0896 1.08956 1.08953 1.0895 1.08947 1.08943 1.0894 1.08936 1.08932 1.08928 1.08924 1.0892 1.08916 1.08911 1.08906 1.08901 1.08896 1.0889 1.08884 1.08878 1.0887 1.08862 1.08852 1.08841 1.08827 1.08811 1.08791 1.08766 1.08736 1.08698 1.08652 1.08594 1.08522 1.0843 1.08314 1.08165 1.07975 1.07732 1.07424 1.0704 1.06568 1.06002 1.05337 1.0458 1.0375 1.02879 1.02009 1.01184 1.00441 0.998034 0.992783 0.988594 0.985326 0.982803 0.980851 0.97932 0.97809 0.977069 0.976189 0.975404 0.974682 0.974002 0.97335 0.972718 0.972099 0.971492 0.970893 0.970301 0.969715 0.969134 0.968559 0.967988 0.967421 0.966858 0.966298 0.965742 0.965188 0.964638 0.964089 0.963544 0.963 0.962458 0.961917 0.961378 0.960841 0.960304 0.959768 0.959234 0.958699 0.958165 0.957632 0.957098 0.956565 0.956031 0.955496 0.954962 0.954426 0.95389 0.953353 0.952814 0.952274 0.951733 0.95119 0.950645 0.950098 0.949549 0.948997 0.948443 0.947886 0.947326 0.946762 0.946195 0.945624 0.94505 0.944471 0.943887 0.943299 0.942705 0.942106 0.941501 0.940889 0.940271 0.939646 0.939014 0.938373 0.937723 0.937064 0.936396 0.935717 0.935026 0.934323 0.933607 0.932878 0.932132 0.931371 0.930592 0.929793 0.928974 0.928132 0.927265 0.926371 0.925447 0.924491 0.923498 0.922464 0.921386 0.920258 0.919073 0.917824 0.916503 0.9151 0.913602 0.911994 0.910262 0.90838 0.906312 0.904056 0.901605 0.898774 0.895478 0.892369 0.889185 0.884148 0.880121 0.878323 0.878323 
1.09886 1.09202 1.09005 1.09466 1.09316 1.09144 1.09241 1.09281 1.09245 1.09226 1.09225 1.09219 1.09207 1.09198 1.09191 1.09184 1.09177 1.09172 1.09165 1.09161 1.09155 1.09151 1.09145 1.09142 1.09136 1.09133 1.09128 1.09125 1.0912 1.09117 1.09112 1.0911 1.09105 1.09103 1.09098 1.09097 1.09092 1.09091 1.09086 1.09085 1.09081 1.09079 1.09075 1.09074 1.0907 1.09069 1.09065 1.09063 1.0906 1.09058 1.09055 1.09054 1.09051 1.09049 1.09046 1.09044 1.09041 1.09039 1.09037 1.09035 1.09032 1.0903 1.09028 1.09026 1.09023 1.09021 1.09019 1.09016 1.09014 1.09012 1.09009 1.09007 1.09005 1.09002 1.09 1.08998 1.08995 1.08993 1.0899 1.08988 1.08985 1.08982 1.0898 1.08977 1.08974 1.08971 1.08968 1.08966 1.08963 1.08959 1.08956 1.08953 1.0895 1.08946 1.08943 1.08939 1.08936 1.08932 1.08928 1.08924 1.08919 1.08915 1.0891 1.08906 1.08901 1.08895 1.0889 1.08884 1.08877 1.0887 1.08862 1.08853 1.08843 1.08831 1.08817 1.08799 1.08778 1.08752 1.0872 1.0868 1.0863 1.08569 1.08492 1.08396 1.08275 1.08121 1.07927 1.07683 1.07378 1.07002 1.06545 1.05999 1.05359 1.0463 1.03825 1.02971 1.02109 1.01283 1.00531 0.998792 0.993388 0.989055 0.985663 0.983042 0.981017 0.979434 0.978168 0.977121 0.976226 0.97543 0.974702 0.974018 0.973364 0.97273 0.972111 0.971503 0.970903 0.970311 0.969725 0.969144 0.968568 0.967997 0.96743 0.966867 0.966307 0.96575 0.965197 0.964646 0.964098 0.963551 0.963007 0.962465 0.961925 0.961385 0.960848 0.960311 0.959775 0.95924 0.958706 0.958171 0.957638 0.957104 0.95657 0.956036 0.955502 0.954967 0.954431 0.953895 0.953357 0.952819 0.952279 0.951737 0.951194 0.950649 0.950102 0.949553 0.949001 0.948447 0.947889 0.947329 0.946766 0.946199 0.945628 0.945053 0.944474 0.943891 0.943302 0.942709 0.94211 0.941505 0.940893 0.940276 0.939651 0.939018 0.938378 0.937729 0.937071 0.936403 0.935724 0.935034 0.934333 0.933618 0.932889 0.932146 0.931386 0.930609 0.929813 0.928997 0.928158 0.927295 0.926406 0.925488 0.924537 0.923552 0.922528 0.921461 0.920346 0.919177 0.917949 0.916653 0.91528 0.913822 0.912263 0.910592 0.908798 0.906855 0.904716 0.902414 0.900004 0.897215 0.893951 0.891133 0.888433 0.885395 0.883288 0.883288 
1.09007 1.09254 1.094 1.09283 1.09151 1.09259 1.0928 1.09229 1.09221 1.09229 1.09221 1.09209 1.092 1.09194 1.09187 1.0918 1.09174 1.09168 1.09163 1.09158 1.09152 1.09149 1.09143 1.0914 1.09134 1.09131 1.09126 1.09123 1.09118 1.09116 1.0911 1.09109 1.09103 1.09102 1.09097 1.09096 1.09091 1.0909 1.09085 1.09084 1.09079 1.09078 1.09074 1.09073 1.09068 1.09067 1.09063 1.09062 1.09059 1.09057 1.09054 1.09052 1.09049 1.09047 1.09044 1.09043 1.0904 1.09038 1.09035 1.09033 1.09031 1.09029 1.09026 1.09024 1.09021 1.09019 1.09017 1.09015 1.09012 1.0901 1.09007 1.09005 1.09003 1.09 1.08998 1.08995 1.08993 1.0899 1.08988 1.08985 1.08982 1.0898 1.08977 1.08974 1.08971 1.08969 1.08966 1.08963 1.08959 1.08956 1.08953 1.0895 1.08946 1.08943 1.08939 1.08935 1.08932 1.08928 1.08924 1.08919 1.08915 1.0891 1.08905 1.089 1.08895 1.08889 1.08884 1.08877 1.0887 1.08863 1.08855 1.08845 1.08834 1.08821 1.08806 1.08788 1.08765 1.08738 1.08703 1.08661 1.08609 1.08544 1.08463 1.08362 1.08236 1.08079 1.07882 1.07637 1.07336 1.06968 1.06525 1.05999 1.05384 1.0468 1.03898 1.03061 1.02207 1.0138 1.00619 0.999541 0.993988 0.989513 0.986 0.983282 0.981185 0.97955 0.978248 0.977178 0.976267 0.975461 0.974727 0.974039 0.973382 0.972747 0.972127 0.971518 0.970918 0.970325 0.969739 0.969158 0.968582 0.968011 0.967443 0.96688 0.96632 0.965763 0.965209 0.964658 0.96411 0.963563 0.963019 0.962477 0.961936 0.961397 0.960859 0.960322 0.959786 0.959251 0.958716 0.958182 0.957648 0.957114 0.95658 0.956046 0.955512 0.954977 0.954441 0.953905 0.953367 0.952828 0.952288 0.951747 0.951203 0.950658 0.950111 0.949562 0.94901 0.948456 0.947899 0.947338 0.946775 0.946208 0.945637 0.945063 0.944484 0.943901 0.943313 0.942719 0.942121 0.941516 0.940905 0.940288 0.939664 0.939032 0.938392 0.937744 0.937087 0.93642 0.935743 0.935055 0.934355 0.933642 0.932915 0.932174 0.931417 0.930644 0.929851 0.929039 0.928205 0.927348 0.926465 0.925554 0.924613 0.923638 0.922626 0.921574 0.920476 0.919328 0.918125 0.916859 0.915524 0.914112 0.912613 0.911013 0.909304 0.907484 0.905531 0.903388 0.901135 0.898875 0.896311 0.893587 0.891221 0.888912 0.886971 0.886971 
1.09245 1.09273 1.09265 1.09196 1.09255 1.09272 1.09218 1.09218 1.0923 1.0922 1.09207 1.09202 1.09196 1.09189 1.09182 1.09176 1.0917 1.09165 1.09159 1.09155 1.0915 1.09146 1.09141 1.09138 1.09132 1.09129 1.09124 1.09122 1.09116 1.09114 1.09109 1.09107 1.09102 1.09101 1.09095 1.09094 1.09089 1.09088 1.09083 1.09082 1.09078 1.09077 1.09072 1.09071 1.09067 1.09066 1.09062 1.09061 1.09057 1.09056 1.09052 1.09051 1.09047 1.09046 1.09043 1.09041 1.09038 1.09036 1.09034 1.09032 1.09029 1.09027 1.09024 1.09022 1.0902 1.09017 1.09015 1.09013 1.0901 1.09008 1.09006 1.09003 1.09001 1.08998 1.08996 1.08993 1.08991 1.08988 1.08985 1.08983 1.0898 1.08977 1.08974 1.08972 1.08969 1.08966 1.08963 1.0896 1.08956 1.08953 1.0895 1.08946 1.08943 1.08939 1.08936 1.08932 1.08928 1.08924 1.08919 1.08915 1.0891 1.08905 1.089 1.08895 1.0889 1.08884 1.08877 1.08871 1.08864 1.08856 1.08847 1.08837 1.08825 1.08812 1.08796 1.08776 1.08752 1.08723 1.08687 1.08643 1.08588 1.08519 1.08435 1.0833 1.082 1.08039 1.0784 1.07595 1.07298 1.06939 1.0651 1.06002 1.05409 1.04729 1.03969 1.03149 1.02303 1.01475 1.00706 1.00028 0.994583 0.989969 0.986337 0.983524 0.981356 0.97967 0.978333 0.977239 0.976312 0.975497 0.974756 0.974064 0.973405 0.972768 0.972147 0.971538 0.970937 0.970344 0.969758 0.969176 0.9686 0.968028 0.967461 0.966897 0.966337 0.96578 0.965226 0.964675 0.964126 0.96358 0.963035 0.962493 0.961952 0.961412 0.960874 0.960337 0.959801 0.959266 0.958731 0.958197 0.957663 0.957129 0.956595 0.956061 0.955526 0.954991 0.954455 0.953919 0.953381 0.952842 0.952302 0.951761 0.951217 0.950672 0.950125 0.949576 0.949024 0.94847 0.947913 0.947353 0.94679 0.946223 0.945653 0.945079 0.9445 0.943917 0.943329 0.942737 0.942138 0.941535 0.940925 0.940308 0.939685 0.939054 0.938415 0.937768 0.937112 0.936447 0.935772 0.935085 0.934388 0.933677 0.932954 0.932216 0.931462 0.930693 0.929905 0.929098 0.92827 0.92742 0.926545 0.925643 0.924713 0.92375 0.922753 0.921717 0.920639 0.919515 0.91834 0.917109 0.915815 0.914452 0.913013 0.911493 0.909876 0.908158 0.906356 0.904445 0.902367 0.900246 0.898151 0.89593 0.893767 0.891799 0.890068 0.890068 
1.09303 1.09234 1.09214 1.09241 1.09255 1.09216 1.09217 1.09229 1.09216 1.09205 1.09202 1.09197 1.09189 1.09183 1.09177 1.09172 1.09166 1.09161 1.09156 1.09152 1.09147 1.09143 1.09138 1.09135 1.0913 1.09127 1.09122 1.0912 1.09114 1.09112 1.09107 1.09106 1.091 1.09099 1.09094 1.09093 1.09087 1.09087 1.09082 1.09081 1.09076 1.09075 1.09071 1.0907 1.09065 1.09065 1.0906 1.09059 1.09055 1.09054 1.09051 1.09049 1.09046 1.09044 1.09041 1.0904 1.09037 1.09035 1.09032 1.0903 1.09027 1.09025 1.09023 1.0902 1.09018 1.09016 1.09013 1.09011 1.09008 1.09006 1.09004 1.09001 1.08999 1.08996 1.08994 1.08991 1.08988 1.08986 1.08983 1.0898 1.08978 1.08975 1.08972 1.08969 1.08966 1.08963 1.0896 1.08957 1.08953 1.0895 1.08947 1.08943 1.08939 1.08936 1.08932 1.08928 1.08924 1.08919 1.08915 1.0891 1.08906 1.08901 1.08895 1.0889 1.08884 1.08878 1.08871 1.08864 1.08857 1.08848 1.08839 1.08828 1.08816 1.08802 1.08785 1.08765 1.0874 1.08709 1.08671 1.08624 1.08567 1.08495 1.08407 1.08299 1.08165 1.08001 1.07801 1.07557 1.07264 1.06913 1.06497 1.06007 1.05436 1.04779 1.04039 1.03235 1.02397 1.01568 1.00791 1.00101 0.995173 0.990423 0.986673 0.983767 0.981528 0.979792 0.97842 0.977303 0.976361 0.975536 0.974789 0.974094 0.973432 0.972794 0.972172 0.971562 0.970961 0.970368 0.96978 0.969199 0.968622 0.96805 0.967483 0.966919 0.966358 0.965801 0.965247 0.964695 0.964147 0.9636 0.963055 0.962513 0.961971 0.961432 0.960894 0.960356 0.95982 0.959285 0.95875 0.958215 0.957681 0.957147 0.956613 0.956079 0.955544 0.955009 0.954474 0.953937 0.953399 0.952861 0.952321 0.951779 0.951236 0.950691 0.950144 0.949595 0.949043 0.948489 0.947933 0.947373 0.94681 0.946243 0.945673 0.9451 0.944522 0.943939 0.943352 0.94276 0.942162 0.941559 0.94095 0.940335 0.939712 0.939083 0.938446 0.9378 0.937146 0.936483 0.935809 0.935125 0.93443 0.933723 0.933003 0.932268 0.931519 0.930754 0.929972 0.929171 0.92835 0.927508 0.926642 0.925751 0.924832 0.923883 0.922901 0.921884 0.920828 0.91973 0.918585 0.917389 0.916138 0.914826 0.913448 0.912 0.91048 0.908874 0.907182 0.905435 0.903611 0.901685 0.899766 0.89787 0.895976 0.894199 0.89263 0.89263 
1.09211 1.09226 1.09232 1.09233 1.09216 1.09214 1.09223 1.09212 1.09202 1.09201 1.09196 1.09189 1.09183 1.09178 1.09172 1.09167 1.09162 1.09158 1.09153 1.09149 1.09144 1.09141 1.09136 1.09133 1.09128 1.09125 1.0912 1.09118 1.09112 1.09111 1.09105 1.09104 1.09098 1.09097 1.09092 1.09091 1.09086 1.09085 1.0908 1.0908 1.09074 1.09074 1.09069 1.09069 1.09064 1.09063 1.09059 1.09058 1.09054 1.09053 1.09049 1.09048 1.09044 1.09043 1.0904 1.09038 1.09035 1.09033 1.0903 1.09028 1.09026 1.09024 1.09021 1.09019 1.09016 1.09014 1.09011 1.09009 1.09007 1.09004 1.09002 1.08999 1.08997 1.08994 1.08991 1.08989 1.08986 1.08983 1.08981 1.08978 1.08975 1.08972 1.08969 1.08966 1.08963 1.0896 1.08957 1.08954 1.0895 1.08947 1.08943 1.0894 1.08936 1.08932 1.08928 1.08924 1.0892 1.08915 1.08911 1.08906 1.08901 1.08896 1.0889 1.08884 1.08878 1.08872 1.08865 1.08858 1.0885 1.08841 1.08831 1.0882 1.08807 1.08792 1.08774 1.08753 1.08727 1.08695 1.08655 1.08606 1.08546 1.08472 1.08381 1.08269 1.08133 1.07966 1.07765 1.07522 1.07233 1.06891 1.06488 1.06015 1.05464 1.04828 1.04108 1.03319 1.02489 1.0166 1.00876 1.00174 0.995759 0.990875 0.98701 0.984011 0.981703 0.979918 0.978511 0.977372 0.976415 0.97558 0.974827 0.974128 0.973464 0.972824 0.972201 0.971591 0.970989 0.970395 0.969808 0.969226 0.968649 0.968077 0.967509 0.966944 0.966384 0.965826 0.965272 0.96472 0.964171 0.963624 0.963079 0.962536 0.961995 0.961456 0.960917 0.96038 0.959843 0.959308 0.958773 0.958238 0.957704 0.95717 0.956636 0.956102 0.955567 0.955032 0.954496 0.95396 0.953422 0.952883 0.952343 0.951802 0.951259 0.950714 0.950167 0.949618 0.949067 0.948513 0.947957 0.947397 0.946835 0.946269 0.945699 0.945126 0.944548 0.943967 0.94338 0.942789 0.942192 0.94159 0.940982 0.940368 0.939747 0.939118 0.938483 0.937839 0.937187 0.936526 0.935855 0.935173 0.934481 0.933777 0.933061 0.932331 0.931586 0.930826 0.93005 0.929256 0.928443 0.927609 0.926752 0.925872 0.924966 0.924032 0.923067 0.92207 0.921036 0.919964 0.91885 0.91769 0.916481 0.91522 0.913903 0.912524 0.911085 0.909587 0.908016 0.906384 0.904721 0.903011 0.901267 0.899554 0.89788 0.89627 0.89482 0.89482 
1.09213 1.0922 1.09218 1.09212 1.0921 1.09214 1.09207 1.092 1.09199 1.09194 1.09187 1.09183 1.09178 1.09173 1.09167 1.09163 1.09158 1.09154 1.09149 1.09145 1.09141 1.09138 1.09133 1.0913 1.09125 1.09123 1.09117 1.09115 1.0911 1.09109 1.09103 1.09102 1.09097 1.09096 1.0909 1.0909 1.09084 1.09084 1.09078 1.09078 1.09073 1.09072 1.09067 1.09067 1.09062 1.09062 1.09057 1.09057 1.09052 1.09051 1.09047 1.09046 1.09043 1.09041 1.09038 1.09036 1.09033 1.09031 1.09029 1.09027 1.09024 1.09022 1.09019 1.09017 1.09014 1.09012 1.09009 1.09007 1.09005 1.09002 1.09 1.08997 1.08994 1.08992 1.08989 1.08987 1.08984 1.08981 1.08978 1.08976 1.08973 1.0897 1.08967 1.08964 1.08961 1.08957 1.08954 1.08951 1.08947 1.08944 1.0894 1.08936 1.08933 1.08929 1.08924 1.0892 1.08916 1.08911 1.08906 1.08901 1.08896 1.08891 1.08885 1.08879 1.08873 1.08866 1.08859 1.08851 1.08843 1.08833 1.08823 1.08812 1.08798 1.08782 1.08764 1.08741 1.08714 1.08681 1.08639 1.08589 1.08526 1.0845 1.08356 1.08241 1.08102 1.07934 1.07732 1.07491 1.07207 1.06873 1.06482 1.06025 1.05493 1.04877 1.04177 1.03402 1.02579 1.0175 1.00959 1.00245 0.996341 0.991326 0.987346 0.984256 0.98188 0.980046 0.978606 0.977444 0.976472 0.975628 0.974869 0.974166 0.9735 0.972859 0.972235 0.971623 0.971021 0.970427 0.969839 0.969257 0.96868 0.968107 0.967539 0.966974 0.966413 0.965856 0.965301 0.964749 0.9642 0.963653 0.963108 0.962564 0.962023 0.961483 0.960945 0.960407 0.959871 0.959335 0.9588 0.958265 0.957731 0.957197 0.956663 0.956128 0.955594 0.955059 0.954523 0.953986 0.953449 0.95291 0.95237 0.951829 0.951286 0.950741 0.950195 0.949646 0.949095 0.948542 0.947985 0.947426 0.946864 0.946299 0.94573 0.945157 0.94458 0.943999 0.943413 0.942823 0.942227 0.941626 0.941019 0.940406 0.939787 0.93916 0.938526 0.937884 0.937234 0.936575 0.935907 0.935229 0.93454 0.933839 0.933127 0.932401 0.931662 0.930908 0.930138 0.929351 0.928545 0.92772 0.926875 0.926006 0.925113 0.924194 0.923247 0.922269 0.921258 0.920213 0.919129 0.918005 0.916838 0.915625 0.914364 0.913053 0.911689 0.910277 0.908819 0.907309 0.905763 0.904203 0.902626 0.901058 0.899531 0.898059 0.89671 0.89671 
1.09213 1.09206 1.09204 1.09204 1.09204 1.09201 1.09196 1.09195 1.09191 1.09185 1.09181 1.09177 1.09172 1.09167 1.09163 1.09158 1.09154 1.0915 1.09145 1.09142 1.09138 1.09134 1.0913 1.09127 1.09122 1.0912 1.09115 1.09113 1.09108 1.09106 1.09101 1.091 1.09095 1.09094 1.09088 1.09088 1.09082 1.09082 1.09076 1.09076 1.09071 1.09071 1.09066 1.09065 1.0906 1.0906 1.09055 1.09055 1.09051 1.0905 1.09046 1.09045 1.09041 1.0904 1.09036 1.09035 1.09032 1.0903 1.09027 1.09025 1.09022 1.0902 1.09017 1.09015 1.09012 1.0901 1.09008 1.09005 1.09003 1.09 1.08998 1.08995 1.08992 1.0899 1.08987 1.08984 1.08982 1.08979 1.08976 1.08973 1.0897 1.08967 1.08964 1.08961 1.08958 1.08955 1.08951 1.08948 1.08944 1.08941 1.08937 1.08933 1.08929 1.08925 1.08921 1.08916 1.08912 1.08907 1.08902 1.08897 1.08891 1.08886 1.0888 1.08874 1.08867 1.0886 1.08852 1.08844 1.08836 1.08826 1.08815 1.08803 1.08789 1.08773 1.08753 1.0873 1.08701 1.08667 1.08624 1.08571 1.08507 1.08428 1.08332 1.08215 1.08073 1.07903 1.07701 1.07463 1.07183 1.06857 1.06478 1.06037 1.05523 1.04927 1.04244 1.03483 1.02668 1.01839 1.01041 1.00316 0.996919 0.991774 0.987681 0.984502 0.982059 0.980176 0.978703 0.977519 0.976533 0.97568 0.974916 0.974209 0.973541 0.972898 0.972273 0.971661 0.971058 0.970463 0.969875 0.969292 0.968715 0.968142 0.967573 0.967008 0.966447 0.965889 0.965334 0.964782 0.964232 0.963685 0.96314 0.962596 0.962055 0.961515 0.960976 0.960438 0.959902 0.959366 0.958831 0.958296 0.957762 0.957228 0.956693 0.956159 0.955624 0.955089 0.954553 0.954017 0.953479 0.952941 0.952401 0.95186 0.951317 0.950773 0.950226 0.949678 0.949127 0.948574 0.948018 0.94746 0.946898 0.946333 0.945765 0.945192 0.944616 0.944036 0.943451 0.942862 0.942267 0.941667 0.941062 0.94045 0.939832 0.939207 0.938575 0.937936 0.937288 0.936631 0.935966 0.935291 0.934605 0.933909 0.9332 0.93248 0.931745 0.930997 0.930234 0.929454 0.928657 0.927841 0.927006 0.926149 0.92527 0.924366 0.923436 0.922478 0.921491 0.920471 0.919418 0.918328 0.917201 0.916034 0.914825 0.913576 0.912284 0.910949 0.909578 0.908175 0.906741 0.905293 0.903845 0.902404 0.900993 0.899629 0.898365 0.898365 
1.09196 1.09197 1.09197 1.09196 1.09194 1.09191 1.0919 1.09187 1.09182 1.09179 1.09175 1.09171 1.09166 1.09162 1.09158 1.09154 1.0915 1.09146 1.09142 1.09139 1.09134 1.09131 1.09127 1.09124 1.0912 1.09117 1.09112 1.09111 1.09106 1.09104 1.09099 1.09098 1.09092 1.09092 1.09086 1.09086 1.0908 1.0908 1.09075 1.09075 1.09069 1.09069 1.09064 1.09064 1.09059 1.09059 1.09054 1.09053 1.09049 1.09048 1.09044 1.09043 1.09039 1.09038 1.09035 1.09033 1.0903 1.09028 1.09025 1.09023 1.0902 1.09018 1.09015 1.09013 1.09011 1.09008 1.09006 1.09003 1.09001 1.08998 1.08995 1.08993 1.0899 1.08988 1.08985 1.08982 1.08979 1.08976 1.08974 1.08971 1.08968 1.08965 1.08961 1.08958 1.08955 1.08952 1.08948 1.08945 1.08941 1.08937 1.08933 1.0893 1.08925 1.08921 1.08917 1.08912 1.08908 1.08903 1.08897 1.08892 1.08887 1.08881 1.08875 1.08868 1.08861 1.08854 1.08846 1.08838 1.08828 1.08818 1.08807 1.08794 1.0878 1.08763 1.08743 1.08718 1.08689 1.08653 1.08609 1.08555 1.08488 1.08407 1.08309 1.08189 1.08046 1.07875 1.07674 1.07437 1.07163 1.06845 1.06477 1.06051 1.05554 1.04976 1.04311 1.03563 1.02756 1.01926 1.01122 1.00387 0.997492 0.99222 0.988017 0.984749 0.982239 0.98031 0.978804 0.977599 0.976599 0.975737 0.974967 0.974256 0.973586 0.972941 0.972315 0.971702 0.971099 0.970504 0.969915 0.969332 0.968754 0.96818 0.967611 0.967046 0.966485 0.965926 0.965371 0.964819 0.964269 0.963721 0.963176 0.962632 0.962091 0.96155 0.961011 0.960474 0.959937 0.959401 0.958866 0.958331 0.957796 0.957262 0.956728 0.956194 0.955659 0.955124 0.954588 0.954052 0.953514 0.952976 0.952436 0.951895 0.951353 0.950808 0.950262 0.949714 0.949164 0.948611 0.948056 0.947497 0.946936 0.946372 0.945804 0.945233 0.944657 0.944078 0.943494 0.942905 0.942312 0.941713 0.941109 0.940499 0.939883 0.93926 0.93863 0.937992 0.937347 0.936693 0.936031 0.935359 0.934677 0.933984 0.93328 0.932565 0.931836 0.931094 0.930337 0.929565 0.928776 0.92797 0.927146 0.926301 0.925435 0.924547 0.923634 0.922696 0.92173 0.920736 0.919712 0.918655 0.917566 0.916442 0.915282 0.914088 0.912859 0.911597 0.910303 0.908986 0.907649 0.906298 0.904949 0.903611 0.902297 0.901021 0.899827 0.899827 