# vtk DataFile Version 3.0
LBM simulation at step 160
ASCII
DATASET STRUCTURED_POINTS
DIMENSIONS 128 128 1
ORIGIN 0 0 0
SPACING 1 1 1
POINT_DATA 16384
SCALARS density float
LOOKUP_TABLE default
0.955437 1.02089 1.02283 1.01976 1.02029 1.02084 1.02111 1.02146 1.02191 1.0224 1.02291 1.02343 1.02396 1.02449 1.025 1.02549 1.02596 1.02639 1.02679 1.02715 1.02747 1.02775 1.02799 1.0282 1.02838 1.02852 1.02863 1.0287 1.02875 1.02877 1.02875 1.0287 1.02861 1.02848 1.0283 1.02807 1.02778 1.02744 1.02705 1.0266 1.02611 1.02558 1.02502 1.02444 1.02384 1.02323 1.02262 1.02202 1.02142 1.02082 1.02023 1.01965 1.01908 1.01851 1.01794 1.01737 1.0168 1.01623 1.01565 1.01506 1.01446 1.01384 1.01321 1.01256 1.0119 1.01122 1.01053 1.00983 1.00911 1.00839 1.00766 1.00693 1.00621 1.00549 1.00479 1.0041 1.00343 1.00277 1.00213 1.00148 1.00084 1.00017 0.999463 0.998699 0.997854 0.996905 0.995831 0.99462 0.993274 0.991807 0.990253 0.988658 0.987076 0.985562 0.984161 0.982906 0.981813 0.980882 0.980101 0.979449 0.978901 0.978433 0.978022 0.977651 0.977304 0.976972 0.976646 0.976321 0.975995 0.975664 0.975327 0.974982 0.974629 0.974266 0.973891 0.973503 0.9731 0.972679 0.972236 0.971769 0.971255 0.970675 0.97007 0.969764 0.967951 0.966679 0.984124 0.984124 
1.02381 1.02163 1.018 1.01951 1.02067 1.02094 1.0212 1.02158 1.02201 1.02248 1.02298 1.02349 1.024 1.02451 1.025 1.02547 1.02592 1.02634 1.02672 1.02707 1.02738 1.02765 1.02789 1.0281 1.02827 1.02841 1.02851 1.02859 1.02864 1.02865 1.02864 1.02858 1.02849 1.02836 1.02817 1.02794 1.02765 1.0273 1.02691 1.02646 1.02597 1.02544 1.02488 1.0243 1.02371 1.02311 1.02251 1.0219 1.0213 1.02071 1.02013 1.01955 1.01898 1.01841 1.01784 1.01727 1.0167 1.01613 1.01555 1.01496 1.01436 1.01374 1.01312 1.01248 1.01182 1.01115 1.01046 1.00976 1.00906 1.00834 1.00762 1.0069 1.00618 1.00547 1.00477 1.00408 1.00341 1.00274 1.00209 1.00144 1.00078 1.0001 0.99939 0.998622 0.997778 0.996838 0.995782 0.994598 0.993286 0.991857 0.99034 0.988776 0.987214 0.985708 0.984304 0.983035 0.981922 0.980968 0.980162 0.979488 0.978921 0.978437 0.978015 0.977635 0.977282 0.976944 0.976614 0.976286 0.975957 0.975622 0.975282 0.974933 0.974575 0.974206 0.973825 0.97343 0.973017 0.972583 0.972126 0.971645 0.971126 0.97051 0.969711 0.969122 0.96983 0.970984 0.969119 0.969119 
1.03152 1.01875 1.01831 1.02108 1.02098 1.02092 1.02134 1.02179 1.02221 1.02264 1.0231 1.02358 1.02406 1.02453 1.02498 1.02542 1.02583 1.02621 1.02657 1.02689 1.02718 1.02743 1.02766 1.02785 1.02801 1.02815 1.02825 1.02833 1.02838 1.02839 1.02838 1.02833 1.02824 1.0281 1.02792 1.02768 1.02739 1.02704 1.02665 1.0262 1.02571 1.02518 1.02463 1.02405 1.02346 1.02286 1.02226 1.02166 1.02106 1.02047 1.01989 1.01931 1.01874 1.01817 1.0176 1.01703 1.01646 1.01589 1.01531 1.01472 1.01413 1.01352 1.0129 1.01227 1.01162 1.01096 1.01029 1.00961 1.00892 1.00822 1.00752 1.00681 1.00611 1.00541 1.00472 1.00403 1.00336 1.00269 1.00203 1.00138 1.00071 1.00003 0.999308 0.998542 0.997705 0.99678 0.995746 0.99459 0.993309 0.991912 0.990422 0.988878 0.987328 0.985824 0.984412 0.98313 0.981999 0.981025 0.9802 0.979509 0.978928 0.978434 0.978003 0.977617 0.977259 0.976919 0.976586 0.976256 0.975925 0.975588 0.975245 0.974894 0.974532 0.97416 0.973774 0.973372 0.972953 0.972514 0.972048 0.971537 0.970988 0.970457 0.969929 0.969159 0.968688 0.966891 0.960399 0.960399 
1.0167 1.02076 1.02296 1.02087 1.02051 1.02135 1.0218 1.02207 1.02243 1.02286 1.02329 1.02371 1.02413 1.02455 1.02495 1.02533 1.02569 1.02602 1.02633 1.02661 1.02687 1.0271 1.0273 1.02748 1.02763 1.02776 1.02786 1.02794 1.02799 1.028 1.02799 1.02794 1.02785 1.02772 1.02754 1.0273 1.02702 1.02667 1.02627 1.02583 1.02534 1.02481 1.02426 1.02368 1.02309 1.02249 1.0219 1.0213 1.0207 1.02012 1.01953 1.01895 1.01838 1.01781 1.01724 1.01667 1.0161 1.01553 1.01495 1.01437 1.01378 1.01318 1.01257 1.01195 1.01132 1.01068 1.01003 1.00937 1.00871 1.00803 1.00735 1.00667 1.00599 1.00531 1.00463 1.00396 1.00329 1.00263 1.00197 1.0013 1.00063 0.999943 0.999223 0.998457 0.997627 0.996713 0.995697 0.994564 0.99331 0.991939 0.990474 0.988949 0.98741 0.985909 0.984493 0.9832 0.982055 0.981065 0.980225 0.97952 0.978928 0.978425 0.977989 0.977598 0.977238 0.976896 0.976563 0.976232 0.975899 0.975562 0.975218 0.974865 0.974502 0.974127 0.973739 0.973335 0.972911 0.972465 0.971997 0.971505 0.970958 0.970333 0.969772 0.969209 0.968242 0.966288 0.962199 0.962199 
1.02146 1.02179 1.02107 1.02086 1.02171 1.02193 1.02203 1.02238 1.02278 1.02314 1.02349 1.02386 1.02421 1.02456 1.02489 1.02521 1.0255 1.02578 1.02604 1.02627 1.02649 1.02669 1.02687 1.02702 1.02716 1.02728 1.02737 1.02744 1.02749 1.02751 1.0275 1.02745 1.02736 1.02723 1.02706 1.02682 1.02654 1.02619 1.0258 1.02535 1.02486 1.02434 1.02378 1.02321 1.02262 1.02203 1.02143 1.02084 1.02024 1.01966 1.01907 1.01849 1.01792 1.01735 1.01678 1.01621 1.01564 1.01507 1.01449 1.01391 1.01333 1.01274 1.01215 1.01154 1.01093 1.01032 1.00969 1.00906 1.00843 1.00778 1.00714 1.00648 1.00583 1.00517 1.00452 1.00386 1.0032 1.00254 1.00189 1.00122 1.00054 0.999849 0.999125 0.998357 0.997529 0.996624 0.995623 0.994511 0.993281 0.991936 0.990495 0.988989 0.987464 0.985968 0.98455 0.983249 0.982092 0.981089 0.980237 0.979521 0.978921 0.978411 0.97797 0.977578 0.977217 0.976875 0.976542 0.976212 0.97588 0.975543 0.975199 0.974846 0.974483 0.974108 0.973719 0.973315 0.972893 0.97245 0.971976 0.971476 0.970958 0.970392 0.969755 0.968987 0.967662 0.966528 0.965639 0.965639 
1.02302 1.02154 1.02128 1.02213 1.02224 1.02218 1.02251 1.02287 1.02314 1.02342 1.02372 1.02402 1.0243 1.02457 1.02482 1.02506 1.02529 1.02551 1.02571 1.0259 1.02607 1.02623 1.02638 1.02651 1.02663 1.02673 1.02681 1.02687 1.02692 1.02693 1.02692 1.02688 1.02679 1.02666 1.02649 1.02625 1.02597 1.02563 1.02523 1.02479 1.0243 1.02378 1.02323 1.02266 1.02208 1.02149 1.02089 1.0203 1.01971 1.01912 1.01854 1.01796 1.01738 1.01681 1.01624 1.01567 1.0151 1.01453 1.01396 1.01339 1.01282 1.01224 1.01166 1.01107 1.01048 1.00989 1.0093 1.0087 1.00809 1.00748 1.00687 1.00625 1.00562 1.005 1.00436 1.00372 1.00308 1.00243 1.00178 1.00111 1.00043 0.999732 0.999003 0.998234 0.997409 0.996511 0.995524 0.994432 0.993225 0.991905 0.990488 0.989002 0.98749 0.986 0.984581 0.983275 0.982109 0.981095 0.980233 0.979509 0.978902 0.978388 0.977946 0.977553 0.977193 0.976853 0.976522 0.976194 0.975865 0.97553 0.975188 0.974836 0.974475 0.974102 0.973715 0.973312 0.972892 0.972454 0.971993 0.971499 0.970972 0.970418 0.96978 0.969075 0.968122 0.967191 0.966721 0.966721 
1.02229 1.02215 1.02251 1.02256 1.02253 1.02284 1.02312 1.02329 1.0235 1.02374 1.02397 1.02417 1.02437 1.02457 1.02475 1.02492 1.02508 1.02523 1.02538 1.02552 1.02565 1.02577 1.02588 1.02598 1.02608 1.02616 1.02622 1.02627 1.02631 1.02632 1.0263 1.02625 1.02616 1.02604 1.02586 1.02563 1.02534 1.025 1.02461 1.02417 1.02368 1.02316 1.02262 1.02205 1.02147 1.02088 1.02029 1.0197 1.01912 1.01853 1.01795 1.01737 1.0168 1.01623 1.01566 1.01509 1.01452 1.01396 1.01339 1.01283 1.01226 1.0117 1.01113 1.01056 1.01 1.00943 1.00886 1.00829 1.00771 1.00714 1.00655 1.00597 1.00538 1.00478 1.00417 1.00355 1.00292 1.00229 1.00164 1.00097 1.00029 0.999589 0.998857 0.998086 0.997264 0.996375 0.995401 0.994327 0.993143 0.991848 0.990453 0.988986 0.987487 0.986003 0.984585 0.983275 0.982101 0.98108 0.98021 0.979479 0.978868 0.978354 0.977912 0.977521 0.977165 0.976828 0.976501 0.976178 0.975852 0.975521 0.975182 0.974834 0.974476 0.974106 0.973723 0.973325 0.972911 0.972477 0.972024 0.971547 0.971039 0.970496 0.96987 0.969192 0.968565 0.967835 0.967187 0.967187 
1.02329 1.0229 1.02306 1.02308 1.02329 1.0235 1.02359 1.02374 1.02392 1.02406 1.02419 1.02432 1.02445 1.02456 1.02467 1.02478 1.02487 1.02497 1.02506 1.02515 1.02524 1.02532 1.0254 1.02547 1.02554 1.0256 1.02564 1.02568 1.02569 1.02569 1.02567 1.02561 1.02552 1.02539 1.0252 1.02497 1.02469 1.02435 1.02395 1.02351 1.02303 1.02252 1.02197 1.02141 1.02084 1.02026 1.01967 1.01909 1.0185 1.01792 1.01734 1.01677 1.0162 1.01563 1.01506 1.01449 1.01393 1.01337 1.01281 1.01225 1.0117 1.01114 1.01059 1.01004 1.00949 1.00894 1.00839 1.00785 1.0073 1.00675 1.0062 1.00565 1.00508 1.00451 1.00393 1.00333 1.00272 1.0021 1.00146 1.0008 1.00012 0.999415 0.998683 0.997913 0.997095 0.996214 0.995254 0.994199 0.993036 0.991763 0.99039 0.988941 0.987454 0.985978 0.98456 0.983246 0.982067 0.981039 0.980164 0.97943 0.978818 0.978304 0.977865 0.977479 0.977128 0.976798 0.976477 0.97616 0.975839 0.975514 0.97518 0.974837 0.974484 0.974119 0.973741 0.973349 0.972943 0.972519 0.972075 0.971611 0.971119 0.970599 0.970049 0.969442 0.968866 0.96828 0.967663 0.967663 
1.02428 1.02364 1.02373 1.02388 1.02401 1.02406 1.02414 1.02424 1.0243 1.02436 1.02442 1.02447 1.02452 1.02456 1.0246 1.02465 1.02469 1.02473 1.02478 1.02483 1.02487 1.02492 1.02496 1.025 1.02504 1.02507 1.02509 1.02511 1.02511 1.02509 1.02505 1.02499 1.02488 1.02474 1.02456 1.02432 1.02403 1.02369 1.0233 1.02286 1.02238 1.02187 1.02134 1.02078 1.02021 1.01964 1.01906 1.01848 1.0179 1.01732 1.01675 1.01618 1.01561 1.01504 1.01448 1.01391 1.01335 1.0128 1.01224 1.01169 1.01114 1.0106 1.01005 1.00951 1.00898 1.00845 1.00792 1.0074 1.00687 1.00635 1.00582 1.00529 1.00475 1.0042 1.00364 1.00307 1.00248 1.00187 1.00124 1.00059 0.999911 0.999211 0.998481 0.997714 0.996902 0.996031 0.995084 0.994047 0.992905 0.991654 0.9903 0.988868 0.987393 0.985922 0.984506 0.983189 0.982005 0.980972 0.980093 0.979358 0.978747 0.978236 0.977803 0.977424 0.977081 0.976759 0.976447 0.976137 0.975825 0.975506 0.97518 0.974843 0.974496 0.974137 0.973766 0.973382 0.972983 0.97257 0.972139 0.971691 0.97122 0.970721 0.970214 0.969687 0.969135 0.968619 0.968114 0.968114 
1.02503 1.02447 1.02457 1.02464 1.02466 1.02468 1.02471 1.02469 1.02467 1.02465 1.02463 1.0246 1.02458 1.02456 1.02454 1.02453 1.02453 1.02453 1.02453 1.02454 1.02455 1.02456 1.02457 1.02459 1.02459 1.0246 1.0246 1.02459 1.02457 1.02454 1.02448 1.0244 1.02429 1.02414 1.02395 1.02371 1.02342 1.02307 1.02268 1.02225 1.02177 1.02126 1.02073 1.02018 1.01962 1.01905 1.01848 1.0179 1.01733 1.01676 1.01619 1.01562 1.01506 1.01449 1.01393 1.01337 1.01282 1.01226 1.01171 1.01116 1.01062 1.01008 1.00954 1.00901 1.00848 1.00796 1.00745 1.00694 1.00643 1.00592 1.00541 1.0049 1.00438 1.00386 1.00332 1.00276 1.00219 1.0016 1.00098 1.00034 0.99967 0.998975 0.99825 0.99749 0.996686 0.995825 0.994893 0.993874 0.992751 0.99152 0.990186 0.988768 0.987303 0.985837 0.984422 0.983102 0.981914 0.980878 0.979997 0.979261 0.978653 0.978149 0.977723 0.977353 0.97702 0.976709 0.976407 0.976108 0.975806 0.975496 0.975178 0.97485 0.974511 0.97416 0.973797 0.973421 0.973032 0.972629 0.972211 0.971777 0.971328 0.970861 0.970378 0.969895 0.969394 0.968909 0.968456 0.968456 
1.02591 1.02534 1.02539 1.02539 1.02536 1.02532 1.02524 1.02514 1.02504 1.02493 1.02483 1.02473 1.02465 1.02457 1.0245 1.02445 1.0244 1.02436 1.02433 1.02431 1.02428 1.02427 1.02425 1.02423 1.02421 1.02419 1.02416 1.02413 1.0241 1.02404 1.02397 1.02388 1.02376 1.0236 1.0234 1.02315 1.02286 1.02252 1.02213 1.02169 1.02122 1.02072 1.02019 1.01965 1.01909 1.01853 1.01796 1.01739 1.01682 1.01626 1.01569 1.01513 1.01456 1.014 1.01344 1.01288 1.01233 1.01177 1.01122 1.01068 1.01013 1.00959 1.00906 1.00853 1.00801 1.00749 1.00699 1.00648 1.00598 1.00549 1.00499 1.00449 1.00399 1.00348 1.00296 1.00242 1.00186 1.00129 1.00068 1.00005 0.999396 0.99871 0.997994 0.997242 0.996448 0.9956 0.994684 0.993682 0.992579 0.991367 0.990049 0.988645 0.987189 0.985727 0.984311 0.982988 0.981797 0.980757 0.979875 0.979141 0.978537 0.97804 0.977623 0.977265 0.976944 0.976645 0.976356 0.97607 0.975779 0.975481 0.975174 0.974855 0.974525 0.974184 0.97383 0.973463 0.973084 0.972693 0.972288 0.971869 0.971438 0.970996 0.97054 0.97008 0.969622 0.969165 0.968729 0.968729 
1.02679 1.02619 1.02619 1.02614 1.02605 1.02592 1.02575 1.02558 1.02539 1.02521 1.02503 1.02487 1.02472 1.02459 1.02448 1.02438 1.0243 1.02423 1.02417 1.02412 1.02406 1.02402 1.02397 1.02393 1.02389 1.02384 1.0238 1.02375 1.02369 1.02362 1.02354 1.02343 1.0233 1.02313 1.02293 1.02268 1.02238 1.02204 1.02165 1.02122 1.02075 1.02025 1.01973 1.01919 1.01864 1.01808 1.01752 1.01695 1.01639 1.01583 1.01526 1.0147 1.01414 1.01358 1.01302 1.01246 1.0119 1.01135 1.01079 1.01024 1.00969 1.00915 1.00862 1.00809 1.00756 1.00705 1.00654 1.00604 1.00554 1.00505 1.00456 1.00407 1.00358 1.00308 1.00257 1.00205 1.00151 1.00094 1.00035 0.999737 0.999093 0.998418 0.997713 0.996973 0.996192 0.995358 0.994459 0.993475 0.992391 0.991197 0.989895 0.988502 0.987053 0.985593 0.984176 0.98285 0.981654 0.980611 0.979728 0.978996 0.978398 0.977909 0.977503 0.977157 0.97685 0.976566 0.976292 0.97602 0.975743 0.975458 0.975163 0.974857 0.974538 0.974207 0.973863 0.973507 0.973139 0.972759 0.972367 0.971963 0.971548 0.971124 0.970693 0.970254 0.969819 0.969387 0.968966 0.968966 
1.02758 1.02701 1.02697 1.02687 1.02671 1.0265 1.02626 1.026 1.02574 1.02548 1.02524 1.02501 1.02481 1.02463 1.02448 1.02435 1.02423 1.02413 1.02404 1.02396 1.02389 1.02382 1.02375 1.02368 1.02362 1.02356 1.02349 1.02343 1.02335 1.02327 1.02318 1.02306 1.02292 1.02274 1.02253 1.02228 1.02199 1.02165 1.02126 1.02083 1.02037 1.01988 1.01936 1.01882 1.01828 1.01772 1.01716 1.0166 1.01603 1.01547 1.01491 1.01435 1.01378 1.01322 1.01266 1.0121 1.01154 1.01097 1.01042 1.00986 1.00931 1.00876 1.00821 1.00767 1.00714 1.00662 1.00611 1.0056 1.00511 1.00461 1.00413 1.00364 1.00316 1.00267 1.00217 1.00165 1.00112 1.00057 0.999998 0.999396 0.998764 0.998104 0.997412 0.996685 0.995919 0.995103 0.994221 0.993256 0.992191 0.991014 0.989726 0.988344 0.9869 0.985441 0.984021 0.98269 0.981489 0.980443 0.979559 0.97883 0.978237 0.977757 0.977362 0.97703 0.976738 0.97647 0.976212 0.975956 0.975696 0.975426 0.975146 0.974853 0.974547 0.974228 0.973896 0.973551 0.973194 0.972826 0.972446 0.972056 0.971656 0.971248 0.970834 0.970416 0.969997 0.969583 0.969177 0.969177 
1.02832 1.02778 1.0277 1.02755 1.02733 1.02706 1.02675 1.02642 1.02609 1.02576 1.02545 1.02517 1.02492 1.0247 1.0245 1.02433 1.02418 1.02406 1.02394 1.02384 1.02374 1.02365 1.02356 1.02348 1.0234 1.02332 1.02324 1.02317 1.02308 1.02299 1.02288 1.02276 1.02261 1.02244 1.02223 1.02197 1.02168 1.02134 1.02096 1.02054 1.02008 1.01959 1.01908 1.01854 1.018 1.01744 1.01688 1.01632 1.01576 1.01519 1.01463 1.01406 1.0135 1.01293 1.01236 1.0118 1.01123 1.01066 1.01009 1.00952 1.00896 1.0084 1.00784 1.0073 1.00676 1.00622 1.0057 1.00519 1.00468 1.00419 1.0037 1.00321 1.00273 1.00224 1.00175 1.00124 1.00072 1.00018 0.999621 0.999033 0.998416 0.99777 0.997093 0.996383 0.995633 0.994835 0.993972 0.993027 0.991981 0.990821 0.989547 0.988173 0.986733 0.985274 0.98385 0.982514 0.981308 0.980257 0.979372 0.978644 0.978057 0.977585 0.977203 0.976884 0.976608 0.976356 0.976116 0.975878 0.975635 0.975383 0.975119 0.974841 0.97455 0.974244 0.973925 0.973593 0.973248 0.972892 0.972524 0.972147 0.971761 0.971367 0.970968 0.970565 0.970161 0.96976 0.969366 0.969366 
1.02897 1.02848 1.02837 1.02817 1.02791 1.02758 1.02722 1.02683 1.02644 1.02606 1.02569 1.02536 1.02505 1.02478 1.02455 1.02434 1.02416 1.024 1.02386 1.02374 1.02362 1.02351 1.02341 1.02331 1.02322 1.02313 1.02304 1.02296 1.02286 1.02277 1.02266 1.02253 1.02238 1.0222 1.02199 1.02174 1.02145 1.02112 1.02074 1.02033 1.01987 1.01938 1.01887 1.01834 1.01779 1.01724 1.01668 1.01611 1.01555 1.01498 1.01441 1.01384 1.01327 1.0127 1.01212 1.01155 1.01097 1.01039 1.00981 1.00923 1.00865 1.00808 1.00751 1.00695 1.0064 1.00585 1.00532 1.00479 1.00428 1.00378 1.00328 1.00279 1.0023 1.00181 1.00132 1.00082 1.00031 0.999781 0.99923 0.998654 0.998051 0.99742 0.996759 0.996067 0.995336 0.994558 0.993715 0.99279 0.991763 0.990621 0.989359 0.987994 0.986557 0.985097 0.983668 0.982325 0.981113 0.980057 0.97917 0.978443 0.977861 0.977397 0.977026 0.976721 0.976461 0.976226 0.976004 0.975785 0.97556 0.975327 0.97508 0.97482 0.974545 0.974255 0.97395 0.973632 0.9733 0.972956 0.9726 0.972235 0.971861 0.97148 0.971094 0.970704 0.970313 0.969923 0.969538 0.969538 
1.02954 1.0291 1.02896 1.02874 1.02844 1.02808 1.02767 1.02724 1.0268 1.02636 1.02595 1.02556 1.02521 1.0249 1.02462 1.02438 1.02416 1.02397 1.0238 1.02365 1.02352 1.02339 1.02328 1.02317 1.02307 1.02298 1.02288 1.02279 1.0227 1.02259 1.02248 1.02235 1.02221 1.02203 1.02182 1.02158 1.0213 1.02097 1.0206 1.02019 1.01973 1.01925 1.01874 1.01821 1.01766 1.0171 1.01654 1.01597 1.0154 1.01482 1.01425 1.01367 1.0131 1.01251 1.01193 1.01134 1.01075 1.01016 1.00956 1.00897 1.00838 1.00779 1.00721 1.00663 1.00606 1.00551 1.00496 1.00442 1.0039 1.00338 1.00288 1.00238 1.00188 1.00139 1.0009 1.0004 0.999894 0.999371 0.998828 0.998264 0.997674 0.997058 0.996414 0.99574 0.995029 0.994271 0.993451 0.992547 0.99154 0.990414 0.989166 0.987808 0.986374 0.984912 0.983478 0.982128 0.980908 0.979848 0.978957 0.978231 0.977652 0.977196 0.976835 0.976543 0.976298 0.97608 0.975877 0.975676 0.975471 0.975257 0.97503 0.974788 0.974531 0.974258 0.973969 0.973665 0.973347 0.973016 0.972673 0.97232 0.971958 0.971589 0.971214 0.970835 0.970455 0.970075 0.969698 0.969698 
1.03001 1.02964 1.02948 1.02924 1.02892 1.02853 1.0281 1.02764 1.02716 1.02669 1.02623 1.0258 1.0254 1.02504 1.02472 1.02443 1.02418 1.02396 1.02376 1.02359 1.02344 1.0233 1.02317 1.02306 1.02295 1.02285 1.02276 1.02266 1.02257 1.02246 1.02235 1.02223 1.02208 1.02191 1.02171 1.02147 1.0212 1.02088 1.02051 1.0201 1.01966 1.01917 1.01866 1.01813 1.01758 1.01702 1.01645 1.01587 1.01529 1.01471 1.01413 1.01355 1.01296 1.01237 1.01177 1.01117 1.01057 1.00996 1.00935 1.00874 1.00813 1.00753 1.00693 1.00634 1.00576 1.00518 1.00462 1.00407 1.00353 1.00301 1.00249 1.00198 1.00148 1.00098 1.00049 0.999985 0.999478 0.998958 0.998422 0.997867 0.997289 0.996687 0.996059 0.995404 0.994713 0.993977 0.993179 0.992297 0.99131 0.990202 0.988966 0.987617 0.986186 0.984722 0.983283 0.981926 0.980699 0.979632 0.978738 0.978012 0.977436 0.976985 0.976633 0.976353 0.976122 0.975921 0.975735 0.975553 0.975368 0.975174 0.974967 0.974745 0.974507 0.974252 0.97398 0.973693 0.973389 0.973072 0.972742 0.972401 0.972051 0.971693 0.971328 0.97096 0.970588 0.970217 0.969848 0.969848 
1.03039 1.03008 1.02992 1.02967 1.02934 1.02895 1.02851 1.02803 1.02753 1.02703 1.02653 1.02606 1.02562 1.02521 1.02484 1.02451 1.02422 1.02396 1.02374 1.02354 1.02337 1.02322 1.02308 1.02296 1.02285 1.02275 1.02266 1.02256 1.02247 1.02237 1.02226 1.02214 1.022 1.02183 1.02164 1.02141 1.02114 1.02083 1.02047 1.02007 1.01962 1.01914 1.01863 1.01809 1.01754 1.01697 1.01639 1.01581 1.01523 1.01464 1.01405 1.01345 1.01285 1.01225 1.01164 1.01102 1.0104 1.00978 1.00916 1.00853 1.00791 1.00729 1.00668 1.00607 1.00547 1.00489 1.00431 1.00375 1.0032 1.00266 1.00213 1.0016 1.00109 1.00059 1.00008 0.999576 0.999066 0.998547 0.998015 0.997466 0.996898 0.996308 0.995696 0.995059 0.994388 0.993674 0.992898 0.992039 0.991073 0.989983 0.988761 0.987421 0.985993 0.984528 0.983084 0.981721 0.980487 0.979415 0.978517 0.977789 0.977215 0.976769 0.976424 0.976154 0.975936 0.97575 0.97558 0.975417 0.975251 0.975078 0.974891 0.97469 0.974472 0.974237 0.973983 0.973713 0.973425 0.973123 0.972807 0.972478 0.972139 0.971792 0.971437 0.971078 0.970715 0.970352 0.969989 0.969989 
1.03068 1.03045 1.03028 1.03003 1.02972 1.02933 1.02889 1.02841 1.0279 1.02737 1.02685 1.02634 1.02586 1.0254 1.02499 1.02461 1.02428 1.02399 1.02373 1.02351 1.02332 1.02315 1.02301 1.02288 1.02277 1.02267 1.02258 1.02249 1.02239 1.0223 1.02219 1.02208 1.02194 1.02179 1.0216 1.02138 1.02112 1.02082 1.02046 1.02007 1.01962 1.01914 1.01863 1.01809 1.01753 1.01695 1.01637 1.01578 1.01519 1.01459 1.01399 1.01338 1.01277 1.01215 1.01153 1.0109 1.01026 1.00962 1.00898 1.00834 1.00771 1.00707 1.00645 1.00583 1.00522 1.00462 1.00403 1.00345 1.00288 1.00233 1.00178 1.00125 1.00072 1.00021 0.999691 0.999178 0.998663 0.998141 0.997609 0.997064 0.996503 0.995925 0.995327 0.994706 0.994055 0.993362 0.992609 0.991773 0.990828 0.989756 0.988549 0.987218 0.985795 0.98433 0.982883 0.981515 0.980275 0.979198 0.978296 0.977567 0.976993 0.976551 0.976212 0.975951 0.975743 0.97557 0.975416 0.97527 0.975123 0.974969 0.974803 0.974623 0.974426 0.97421 0.973977 0.973724 0.973454 0.973168 0.972866 0.97255 0.972223 0.971886 0.971541 0.971191 0.970836 0.970479 0.970123 0.970123 
1.03091 1.03073 1.03057 1.03034 1.03004 1.02967 1.02924 1.02876 1.02825 1.02772 1.02718 1.02664 1.02612 1.02562 1.02516 1.02474 1.02436 1.02403 1.02374 1.02349 1.02328 1.0231 1.02295 1.02282 1.02271 1.02261 1.02252 1.02243 1.02234 1.02225 1.02215 1.02204 1.02191 1.02177 1.02159 1.02138 1.02113 1.02083 1.02048 1.02009 1.01965 1.01917 1.01865 1.01811 1.01754 1.01696 1.01637 1.01577 1.01517 1.01456 1.01395 1.01333 1.0127 1.01207 1.01143 1.01079 1.01014 1.00948 1.00883 1.00817 1.00752 1.00687 1.00623 1.0056 1.00498 1.00437 1.00376 1.00317 1.00259 1.00202 1.00146 1.00092 1.00038 0.999843 0.999317 0.998793 0.998269 0.997742 0.997207 0.996663 0.996107 0.995537 0.994951 0.994346 0.993713 0.993041 0.992311 0.991496 0.990573 0.989519 0.988327 0.987007 0.98559 0.984127 0.982679 0.981307 0.980063 0.978982 0.978078 0.977347 0.976774 0.976334 0.976 0.975746 0.975547 0.975386 0.975245 0.975114 0.974985 0.974849 0.974704 0.974544 0.974368 0.974173 0.97396 0.973727 0.973475 0.973205 0.972918 0.972616 0.972301 0.971975 0.97164 0.971298 0.970951 0.970601 0.97025 0.97025 
1.03107 1.03095 1.0308 1.03058 1.0303 1.02996 1.02956 1.0291 1.0286 1.02807 1.02751 1.02695 1.0264 1.02587 1.02536 1.02489 1.02447 1.0241 1.02378 1.0235 1.02327 1.02307 1.02291 1.02278 1.02266 1.02256 1.02247 1.02239 1.0223 1.02222 1.02212 1.02202 1.0219 1.02176 1.02159 1.02139 1.02115 1.02086 1.02052 1.02013 1.01969 1.01921 1.01869 1.01814 1.01757 1.01698 1.01639 1.01578 1.01517 1.01455 1.01392 1.01329 1.01265 1.012 1.01135 1.01069 1.01002 1.00935 1.00868 1.00802 1.00735 1.00669 1.00604 1.0054 1.00477 1.00414 1.00352 1.00292 1.00232 1.00174 1.00117 1.0006 1.00005 0.999498 0.998957 0.99842 0.997885 0.997349 0.99681 0.996264 0.99571 0.995146 0.994571 0.993979 0.993363 0.992711 0.992001 0.991209 0.990306 0.989271 0.988094 0.986786 0.985376 0.983917 0.98247 0.981098 0.979852 0.978769 0.977863 0.977132 0.97656 0.976122 0.975792 0.975543 0.975351 0.975199 0.97507 0.974953 0.974839 0.974721 0.974594 0.974454 0.974299 0.974125 0.973933 0.97372 0.973486 0.973234 0.972963 0.972675 0.972373 0.972058 0.971733 0.9714 0.97106 0.970717 0.970371 0.970371 
1.03118 1.03111 1.03097 1.03078 1.03052 1.03021 1.02983 1.0294 1.02892 1.0284 1.02785 1.02727 1.02669 1.02613 1.02558 1.02507 1.02461 1.02419 1.02383 1.02353 1.02327 1.02306 1.02289 1.02275 1.02263 1.02253 1.02244 1.02236 1.02228 1.0222 1.02211 1.02201 1.0219 1.02177 1.02161 1.02141 1.02118 1.0209 1.02056 1.02018 1.01974 1.01926 1.01874 1.01819 1.01762 1.01702 1.01642 1.0158 1.01518 1.01455 1.01391 1.01326 1.01261 1.01195 1.01128 1.0106 1.00992 1.00924 1.00856 1.00788 1.0072 1.00653 1.00587 1.00522 1.00457 1.00393 1.00331 1.00269 1.00208 1.00148 1.00089 1.0003 0.999732 0.999168 0.99861 0.998059 0.997511 0.996965 0.996418 0.995868 0.995314 0.994754 0.994186 0.993606 0.993006 0.992371 0.991681 0.990908 0.990025 0.989009 0.987848 0.986552 0.985152 0.983699 0.982256 0.980886 0.979641 0.978558 0.977653 0.976923 0.976352 0.975916 0.975588 0.975343 0.975158 0.975013 0.974893 0.974787 0.974687 0.974585 0.974475 0.974355 0.974219 0.974066 0.973894 0.973701 0.973488 0.973253 0.972999 0.972726 0.972437 0.972134 0.971819 0.971494 0.971162 0.970825 0.970485 0.970485 
1.03124 1.03122 1.03109 1.03092 1.0307 1.03042 1.03008 1.02968 1.02922 1.02872 1.02817 1.02759 1.027 1.0264 1.02582 1.02527 1.02477 1.02431 1.02392 1.02358 1.0233 1.02307 1.02289 1.02274 1.02262 1.02251 1.02242 1.02234 1.02227 1.02219 1.0221 1.02201 1.02191 1.02178 1.02163 1.02144 1.02122 1.02094 1.02062 1.02024 1.01981 1.01933 1.01881 1.01825 1.01767 1.01707 1.01646 1.01584 1.0152 1.01456 1.01391 1.01325 1.01258 1.01191 1.01122 1.01053 1.00984 1.00914 1.00845 1.00776 1.00707 1.00639 1.00572 1.00505 1.0044 1.00375 1.0031 1.00247 1.00185 1.00123 1.00062 1.00002 0.999433 0.998851 0.998276 0.997708 0.997146 0.996587 0.996031 0.995475 0.994919 0.99436 0.993798 0.993228 0.992641 0.992022 0.991349 0.990595 0.98973 0.988731 0.987586 0.986303 0.984914 0.98347 0.982034 0.980669 0.979429 0.97835 0.977447 0.97672 0.976151 0.975717 0.975392 0.97515 0.974969 0.974829 0.974717 0.974621 0.974532 0.974443 0.974349 0.974246 0.974129 0.973996 0.973844 0.973672 0.973477 0.973261 0.973024 0.972767 0.972492 0.972201 0.971896 0.97158 0.971256 0.970925 0.97059 0.97059 
1.03127 1.03129 1.03118 1.03103 1.03083 1.03058 1.03028 1.02992 1.02949 1.02901 1.02848 1.0279 1.0273 1.02669 1.02608 1.02549 1.02495 1.02446 1.02403 1.02366 1.02336 1.02311 1.0229 1.02274 1.02261 1.02251 1.02242 1.02234 1.02226 1.02218 1.0221 1.02202 1.02192 1.0218 1.02166 1.02148 1.02126 1.02099 1.02068 1.0203 1.01988 1.0194 1.01888 1.01833 1.01774 1.01714 1.01652 1.01588 1.01524 1.01459 1.01392 1.01325 1.01257 1.01188 1.01118 1.01048 1.00977 1.00906 1.00836 1.00766 1.00696 1.00627 1.00558 1.00491 1.00424 1.00358 1.00292 1.00227 1.00163 1.001 1.00037 0.999755 0.999145 0.998543 0.99795 0.997365 0.996787 0.996215 0.995648 0.995085 0.994525 0.993967 0.993409 0.992846 0.992269 0.991664 0.991006 0.990268 0.98942 0.988437 0.987306 0.986037 0.984661 0.983228 0.981802 0.980446 0.979214 0.978142 0.977245 0.976522 0.975957 0.975526 0.975204 0.974964 0.974786 0.97465 0.974543 0.974454 0.974374 0.974297 0.974216 0.974129 0.974029 0.973914 0.973782 0.973629 0.973454 0.973256 0.973037 0.972795 0.972534 0.972255 0.971961 0.971654 0.971337 0.971013 0.970683 0.970683 
1.03128 1.03132 1.03123 1.0311 1.03093 1.03071 1.03044 1.03012 1.02973 1.02928 1.02877 1.0282 1.0276 1.02698 1.02635 1.02574 1.02516 1.02463 1.02417 1.02377 1.02343 1.02316 1.02294 1.02277 1.02263 1.02251 1.02242 1.02234 1.02226 1.02219 1.02211 1.02203 1.02193 1.02182 1.02168 1.02152 1.02131 1.02105 1.02074 1.02037 1.01995 1.01948 1.01896 1.01841 1.01782 1.01722 1.01659 1.01595 1.01529 1.01463 1.01395 1.01327 1.01257 1.01187 1.01116 1.01044 1.00972 1.009 1.00828 1.00757 1.00687 1.00616 1.00547 1.00478 1.0041 1.00342 1.00275 1.00209 1.00143 1.00078 1.00013 0.999493 0.998865 0.998244 0.997631 0.997029 0.996435 0.995848 0.99527 0.994698 0.994133 0.993574 0.993017 0.99246 0.991892 0.991297 0.990652 0.989928 0.989094 0.988124 0.987008 0.985753 0.98439 0.982971 0.981558 0.980215 0.978995 0.977933 0.977046 0.97633 0.97577 0.975343 0.975023 0.974786 0.97461 0.974476 0.974373 0.974288 0.974215 0.974146 0.974077 0.974002 0.973918 0.97382 0.973705 0.97357 0.973414 0.973235 0.973032 0.972807 0.97256 0.972294 0.97201 0.971712 0.971403 0.971085 0.97076 0.97076 
1.03126 1.03133 1.03125 1.03113 1.03099 1.03081 1.03057 1.03028 1.02993 1.02951 1.02903 1.02849 1.02789 1.02726 1.02662 1.02599 1.02539 1.02483 1.02433 1.0239 1.02353 1.02324 1.023 1.0228 1.02265 1.02253 1.02243 1.02234 1.02227 1.02219 1.02212 1.02204 1.02195 1.02184 1.02172 1.02155 1.02135 1.02111 1.0208 1.02045 1.02003 1.01957 1.01906 1.0185 1.01792 1.01731 1.01667 1.01603 1.01536 1.01469 1.014 1.0133 1.01259 1.01188 1.01115 1.01042 1.00969 1.00896 1.00823 1.00751 1.00679 1.00607 1.00537 1.00467 1.00397 1.00328 1.00259 1.00191 1.00123 1.00056 0.999898 0.999239 0.998589 0.99795 0.997318 0.996697 0.996088 0.995486 0.994896 0.994316 0.993744 0.993182 0.992626 0.992072 0.991511 0.990924 0.990288 0.989574 0.988751 0.987793 0.986689 0.985448 0.9841 0.982697 0.9813 0.979974 0.97877 0.977722 0.976847 0.976141 0.975588 0.975166 0.97485 0.974614 0.974439 0.974307 0.974205 0.974123 0.974054 0.973992 0.97393 0.973866 0.973794 0.97371 0.973611 0.973494 0.973355 0.973193 0.973007 0.972797 0.972564 0.97231 0.972037 0.971748 0.971446 0.971134 0.970815 0.970815 
1.03122 1.03131 1.03124 1.03115 1.03103 1.03087 1.03067 1.03041 1.0301 1.02972 1.02926 1.02874 1.02817 1.02755 1.0269 1.02626 1.02563 1.02505 1.02452 1.02405 1.02366 1.02333 1.02307 1.02286 1.02269 1.02256 1.02245 1.02236 1.02228 1.0222 1.02213 1.02205 1.02197 1.02187 1.02175 1.0216 1.0214 1.02116 1.02087 1.02052 1.02012 1.01966 1.01916 1.01861 1.01802 1.01741 1.01678 1.01612 1.01545 1.01477 1.01407 1.01336 1.01264 1.01191 1.01117 1.01043 1.00968 1.00894 1.0082 1.00747 1.00673 1.00601 1.00529 1.00456 1.00385 1.00315 1.00244 1.00174 1.00105 1.00035 0.999667 0.99899 0.998316 0.997657 0.997009 0.996368 0.995743 0.995129 0.994525 0.993937 0.993358 0.992792 0.992236 0.991683 0.991125 0.990543 0.989914 0.989207 0.988391 0.987443 0.98635 0.985121 0.983789 0.982403 0.981027 0.97972 0.978536 0.977506 0.976646 0.975953 0.975409 0.974993 0.97468 0.974447 0.974272 0.97414 0.974038 0.973957 0.973889 0.97383 0.973774 0.973717 0.973654 0.973582 0.973497 0.973394 0.97327 0.973124 0.972953 0.972758 0.972539 0.972297 0.972034 0.971754 0.971459 0.971153 0.970839 0.970839 
1.03118 1.03128 1.03122 1.03114 1.03103 1.0309 1.03073 1.03051 1.03023 1.02988 1.02946 1.02898 1.02842 1.02782 1.02718 1.02653 1.02589 1.02528 1.02472 1.02423 1.02381 1.02345 1.02316 1.02293 1.02274 1.02259 1.02247 1.02237 1.02229 1.02221 1.02214 1.02207 1.02199 1.02189 1.02178 1.02164 1.02145 1.02122 1.02094 1.02061 1.02021 1.01976 1.01927 1.01872 1.01814 1.01753 1.01689 1.01623 1.01556 1.01486 1.01416 1.01343 1.01271 1.01196 1.01121 1.01046 1.0097 1.00894 1.00819 1.00744 1.00669 1.00596 1.00522 1.00448 1.00375 1.00303 1.0023 1.00157 1.00087 1.00015 0.999435 0.998739 0.998051 0.997364 0.9967 0.996044 0.995399 0.994776 0.994159 0.993561 0.992976 0.992405 0.991847 0.991293 0.990736 0.990156 0.989529 0.988825 0.988014 0.987072 0.985987 0.984771 0.983455 0.982089 0.980735 0.979453 0.978291 0.977284 0.976442 0.975763 0.97523 0.974822 0.974513 0.974281 0.974105 0.973972 0.973868 0.973785 0.973717 0.973658 0.973604 0.973551 0.973495 0.973431 0.973355 0.973264 0.973154 0.973021 0.972865 0.972683 0.972476 0.972245 0.971993 0.97172 0.971432 0.971132 0.970822 0.970822 