# vtk DataFile Version 3.0
LBM simulation at step 210
ASCII
DATASET STRUCTURED_POINTS
DIMENSIONS 128 128 1
ORIGIN 0 0 0
SPACING 1 1 1
POINT_DATA 16384
SCALARS density float
LOOKUP_TABLE default
0.97042 1.03705 1.03871 1.03527 1.0354 1.0355 1.03522 1.03496 1.03473 1.03446 1.03417 1.03385 1.0335 1.03313 1.03273 1.0323 1.03185 1.03137 1.03087 1.03033 1.02975 1.02913 1.02846 1.02774 1.02696 1.02612 1.02521 1.02425 1.02323 1.02217 1.02106 1.01993 1.01879 1.01765 1.01653 1.01543 1.01437 1.01335 1.01239 1.01148 1.01062 1.00982 1.00907 1.00836 1.00769 1.00705 1.00644 1.00586 1.00529 1.00474 1.0042 1.00367 1.00314 1.00262 1.00211 1.0016 1.00109 1.00059 1.00009 0.999588 0.999093 0.998603 0.998116 0.997633 0.997155 0.996681 0.996213 0.995749 0.995291 0.994838 0.994391 0.993949 0.993513 0.993083 0.992658 0.99224 0.991828 0.991421 0.991021 0.990628 0.990241 0.989861 0.989488 0.989123 0.988767 0.988418 0.988079 0.98775 0.987431 0.987122 0.986825 0.986539 0.986264 0.986001 0.985749 0.985508 0.985275 0.98505 0.984829 0.984612 0.984393 0.984171 0.98394 0.983698 0.98344 0.983161 0.982857 0.982524 0.982155 0.981743 0.981281 0.980759 0.980166 0.97949 0.978719 0.977843 0.976856 0.975756 0.97455 0.973255 0.971872 0.970414 0.968955 0.967846 0.965315 0.963411 0.980252 0.980252 
1.03937 1.03764 1.03369 1.03488 1.03565 1.03545 1.03517 1.03493 1.03468 1.03441 1.03411 1.03378 1.03343 1.03305 1.03265 1.03222 1.03177 1.03129 1.03078 1.03024 1.02966 1.02904 1.02837 1.02765 1.02688 1.02605 1.02515 1.0242 1.0232 1.02215 1.02106 1.01994 1.01881 1.01768 1.01656 1.01547 1.01441 1.01339 1.01243 1.01152 1.01066 1.00985 1.00909 1.00837 1.0077 1.00706 1.00645 1.00586 1.00529 1.00474 1.00419 1.00366 1.00314 1.00262 1.0021 1.00159 1.00109 1.00058 1.00008 0.999585 0.999091 0.998602 0.998116 0.997634 0.997157 0.996684 0.996217 0.995754 0.995297 0.994845 0.994398 0.993957 0.993521 0.993091 0.992667 0.992249 0.991837 0.991431 0.991031 0.990638 0.990251 0.989871 0.989498 0.989132 0.988775 0.988426 0.988086 0.987755 0.987434 0.987123 0.986823 0.986534 0.986256 0.985988 0.985732 0.985484 0.985246 0.985014 0.984786 0.984561 0.984335 0.984105 0.983866 0.983616 0.98335 0.983064 0.982752 0.982411 0.982034 0.981614 0.981145 0.980617 0.980019 0.97934 0.97857 0.977699 0.976719 0.975629 0.974433 0.973147 0.971781 0.970303 0.968659 0.96727 0.967244 0.967741 0.965326 0.965326 
1.04683 1.03443 1.03373 1.03619 1.03569 1.03515 1.03503 1.03488 1.03463 1.03434 1.03403 1.0337 1.03334 1.03296 1.03255 1.03211 1.03165 1.03116 1.03065 1.0301 1.02952 1.0289 1.02823 1.02752 1.02675 1.02593 1.02505 1.02412 1.02313 1.02211 1.02104 1.01994 1.01883 1.01772 1.01662 1.01553 1.01448 1.01347 1.0125 1.01158 1.01072 1.00991 1.00914 1.00842 1.00774 1.00709 1.00647 1.00588 1.00531 1.00475 1.00421 1.00367 1.00315 1.00263 1.00211 1.0016 1.00109 1.00059 1.00009 0.999594 0.999101 0.998612 0.998127 0.997646 0.99717 0.996698 0.996231 0.995769 0.995312 0.99486 0.994414 0.993973 0.993537 0.993107 0.992683 0.992265 0.991852 0.991446 0.991045 0.990651 0.990263 0.989883 0.989509 0.989142 0.988783 0.988432 0.988089 0.987755 0.987431 0.987116 0.986811 0.986516 0.986231 0.985956 0.985691 0.985434 0.985185 0.984941 0.984702 0.984464 0.984224 0.983981 0.983729 0.983465 0.983186 0.982887 0.982563 0.98221 0.981823 0.981395 0.980919 0.980386 0.979787 0.979111 0.978347 0.977484 0.976516 0.975441 0.974257 0.97296 0.971578 0.970194 0.968821 0.967243 0.966024 0.963568 0.956537 0.956537 
1.03137 1.03604 1.03803 1.03557 1.03481 1.03519 1.03512 1.0348 1.03452 1.03425 1.03395 1.03361 1.03324 1.03284 1.03242 1.03198 1.03151 1.03101 1.03048 1.02993 1.02934 1.02871 1.02805 1.02734 1.02658 1.02577 1.02491 1.02399 1.02304 1.02204 1.021 1.01993 1.01885 1.01777 1.01668 1.01562 1.01458 1.01357 1.01261 1.01169 1.01082 1.01 1.00922 1.00849 1.0078 1.00715 1.00652 1.00593 1.00535 1.00479 1.00424 1.0037 1.00317 1.00265 1.00213 1.00162 1.00111 1.00061 1.00011 0.999614 0.999122 0.998633 0.998149 0.997668 0.997193 0.996721 0.996254 0.995793 0.995336 0.994884 0.994437 0.993996 0.99356 0.993129 0.992704 0.992285 0.991871 0.991464 0.991062 0.990667 0.990277 0.989895 0.989519 0.989149 0.988788 0.988433 0.988087 0.987749 0.987419 0.987098 0.986786 0.986483 0.986189 0.985904 0.985626 0.985356 0.985092 0.984833 0.984577 0.984321 0.984064 0.983801 0.983531 0.983249 0.982952 0.982637 0.982298 0.981932 0.981533 0.981095 0.980612 0.980075 0.979475 0.978802 0.978044 0.977191 0.976235 0.975169 0.974001 0.972739 0.971372 0.969902 0.968496 0.967117 0.96539 0.962761 0.95811 0.95811 
1.03562 1.03655 1.03557 1.03504 1.0355 1.03527 1.03487 1.03466 1.03445 1.03416 1.03384 1.03349 1.03312 1.03271 1.03228 1.03182 1.03133 1.03082 1.03028 1.02972 1.02912 1.02848 1.02781 1.0271 1.02635 1.02556 1.02472 1.02383 1.0229 1.02194 1.02094 1.01991 1.01887 1.01782 1.01676 1.01572 1.0147 1.0137 1.01275 1.01183 1.01095 1.01013 1.00934 1.0086 1.0079 1.00723 1.0066 1.00599 1.00541 1.00484 1.00429 1.00375 1.00321 1.00269 1.00217 1.00166 1.00115 1.00064 1.00014 0.999647 0.999154 0.998666 0.998181 0.997701 0.997225 0.996754 0.996287 0.995825 0.995367 0.994915 0.994467 0.994025 0.993588 0.993156 0.99273 0.992309 0.991893 0.991484 0.99108 0.990683 0.990291 0.989905 0.989526 0.989154 0.988788 0.988429 0.988077 0.987733 0.987397 0.987068 0.986746 0.986433 0.986127 0.985828 0.985535 0.985248 0.984966 0.984687 0.984409 0.984132 0.983852 0.983566 0.983274 0.98297 0.982652 0.982317 0.981961 0.981579 0.981166 0.980718 0.980227 0.979685 0.979084 0.978413 0.977662 0.976819 0.975879 0.974832 0.973675 0.972421 0.971096 0.969692 0.968212 0.966627 0.964537 0.962713 0.96123 0.96123 
1.03651 1.03565 1.03513 1.03568 1.03542 1.03493 1.03479 1.03464 1.03435 1.03404 1.03372 1.03337 1.03298 1.03256 1.03211 1.03164 1.03114 1.03061 1.03005 1.02947 1.02886 1.02822 1.02754 1.02683 1.02609 1.02531 1.02449 1.02363 1.02274 1.02182 1.02086 1.01988 1.01888 1.01787 1.01685 1.01584 1.01484 1.01386 1.01291 1.012 1.01112 1.01028 1.00949 1.00874 1.00802 1.00734 1.0067 1.00608 1.00549 1.00491 1.00435 1.00381 1.00327 1.00274 1.00222 1.00171 1.0012 1.00069 1.00019 0.999692 0.999198 0.99871 0.998225 0.997744 0.997268 0.996796 0.996328 0.995865 0.995407 0.994953 0.994504 0.99406 0.993621 0.993187 0.992759 0.992336 0.991918 0.991506 0.991099 0.990698 0.990303 0.989913 0.98953 0.989152 0.988781 0.988416 0.988057 0.987705 0.987359 0.98702 0.986687 0.98636 0.986039 0.985723 0.985412 0.985105 0.9848 0.984498 0.984196 0.983892 0.983586 0.983274 0.982955 0.982627 0.982285 0.981928 0.981552 0.981152 0.980725 0.980265 0.979765 0.979219 0.978618 0.977951 0.977208 0.976378 0.975453 0.974428 0.973301 0.972069 0.970748 0.969364 0.967888 0.966363 0.964636 0.963002 0.961915 0.961915 
1.03496 1.0355 1.03563 1.03539 1.03501 1.03494 1.03479 1.03449 1.03421 1.03393 1.0336 1.03322 1.03282 1.03239 1.03193 1.03143 1.03091 1.03037 1.02979 1.02919 1.02857 1.02792 1.02724 1.02653 1.0258 1.02503 1.02424 1.02341 1.02256 1.02168 1.02077 1.01984 1.01889 1.01792 1.01695 1.01597 1.015 1.01404 1.0131 1.01219 1.01131 1.01047 1.00966 1.0089 1.00817 1.00748 1.00682 1.00619 1.00559 1.005 1.00444 1.00388 1.00334 1.00281 1.00229 1.00177 1.00126 1.00075 1.00025 0.999749 0.999255 0.998765 0.998279 0.997798 0.99732 0.996847 0.996378 0.995913 0.995453 0.994997 0.994546 0.9941 0.993659 0.993222 0.992791 0.992364 0.991943 0.991527 0.991117 0.990711 0.990311 0.989916 0.989527 0.989143 0.988764 0.98839 0.988022 0.98766 0.987302 0.986949 0.986602 0.986258 0.985919 0.985583 0.98525 0.98492 0.98459 0.984261 0.983931 0.983599 0.983263 0.982923 0.982575 0.982219 0.981852 0.981471 0.981074 0.980656 0.980214 0.979743 0.979235 0.978686 0.978085 0.977423 0.976691 0.975877 0.974971 0.973967 0.972865 0.971667 0.970379 0.969016 0.967555 0.966055 0.964644 0.963194 0.961902 0.961902 
1.03508 1.03541 1.03535 1.03511 1.03502 1.03489 1.03461 1.03436 1.03411 1.0338 1.03345 1.03307 1.03265 1.0322 1.03172 1.03121 1.03067 1.0301 1.02951 1.02889 1.02825 1.02759 1.02691 1.02621 1.02548 1.02474 1.02397 1.02318 1.02237 1.02153 1.02067 1.0198 1.0189 1.01798 1.01705 1.01611 1.01517 1.01423 1.01331 1.0124 1.01152 1.01067 1.00986 1.00908 1.00834 1.00763 1.00696 1.00632 1.0057 1.00511 1.00453 1.00397 1.00343 1.00289 1.00237 1.00185 1.00133 1.00082 1.00032 0.99982 0.999324 0.998833 0.998346 0.997862 0.997383 0.996908 0.996436 0.995969 0.995507 0.995048 0.994594 0.994145 0.9937 0.993261 0.992825 0.992395 0.991969 0.991548 0.991132 0.990721 0.990314 0.989912 0.989515 0.989122 0.988733 0.988349 0.987968 0.987592 0.98722 0.986851 0.986486 0.986123 0.985762 0.985403 0.985046 0.984688 0.984331 0.983972 0.983612 0.983249 0.982882 0.982511 0.982134 0.981749 0.981356 0.980951 0.980533 0.980097 0.979641 0.979159 0.978645 0.978093 0.977494 0.97684 0.976119 0.975322 0.974439 0.973462 0.972387 0.971217 0.969958 0.968628 0.967246 0.965813 0.964442 0.963115 0.961824 0.961824 
1.03514 1.03524 1.03513 1.03505 1.03494 1.03471 1.03449 1.03426 1.03397 1.03364 1.03329 1.0329 1.03246 1.032 1.0315 1.03096 1.0304 1.02982 1.0292 1.02857 1.02792 1.02725 1.02657 1.02587 1.02516 1.02443 1.02369 1.02294 1.02217 1.02138 1.02057 1.01975 1.0189 1.01804 1.01715 1.01626 1.01535 1.01444 1.01353 1.01263 1.01175 1.0109 1.01007 1.00928 1.00853 1.00781 1.00712 1.00646 1.00583 1.00523 1.00465 1.00408 1.00353 1.00299 1.00246 1.00194 1.00142 1.00091 1.0004 0.999903 0.999406 0.998912 0.998423 0.997937 0.997456 0.996978 0.996504 0.996034 0.995568 0.995106 0.994648 0.994195 0.993746 0.993302 0.992862 0.992426 0.991995 0.991567 0.991144 0.990725 0.99031 0.989898 0.98949 0.989086 0.988684 0.988286 0.987891 0.987499 0.987108 0.98672 0.986334 0.985948 0.985563 0.985178 0.984793 0.984407 0.984019 0.983629 0.983237 0.982841 0.982443 0.98204 0.981633 0.981221 0.980801 0.980374 0.979935 0.979483 0.979014 0.978522 0.978003 0.97745 0.976856 0.97621 0.975503 0.974724 0.973863 0.972913 0.971868 0.97073 0.969505 0.968204 0.966867 0.965509 0.964148 0.962869 0.961661 0.961661 
1.0349 1.03511 1.03505 1.03494 1.03477 1.03458 1.03438 1.03412 1.03382 1.03349 1.03312 1.03271 1.03226 1.03177 1.03125 1.0307 1.03012 1.02952 1.02889 1.02824 1.02758 1.02691 1.02622 1.02553 1.02483 1.02413 1.02342 1.0227 1.02197 1.02123 1.02047 1.0197 1.01891 1.01809 1.01726 1.0164 1.01553 1.01465 1.01376 1.01288 1.012 1.01114 1.01031 1.00951 1.00873 1.008 1.00729 1.00662 1.00598 1.00537 1.00477 1.0042 1.00364 1.0031 1.00256 1.00204 1.00152 1.00101 1.0005 0.999999 0.999499 0.999004 0.998512 0.998023 0.997539 0.997057 0.99658 0.996106 0.995636 0.99517 0.994708 0.99425 0.993796 0.993346 0.9929 0.992458 0.992019 0.991583 0.991151 0.990721 0.990295 0.989871 0.98945 0.989031 0.988615 0.9882 0.987786 0.987374 0.986963 0.986552 0.986142 0.985731 0.985319 0.984905 0.98449 0.984073 0.983653 0.98323 0.982805 0.982377 0.981947 0.981514 0.981078 0.980639 0.980195 0.979746 0.979289 0.978822 0.978341 0.977842 0.97732 0.976768 0.976178 0.975542 0.97485 0.97409 0.973253 0.972329 0.971313 0.970206 0.969015 0.967752 0.96644 0.965119 0.963795 0.962525 0.96134 0.96134 
1.03481 1.035 1.03492 1.0348 1.03464 1.03447 1.03424 1.03397 1.03367 1.03332 1.03293 1.03251 1.03204 1.03154 1.031 1.03043 1.02983 1.02921 1.02856 1.02791 1.02724 1.02657 1.02589 1.02521 1.02452 1.02384 1.02316 1.02247 1.02179 1.02109 1.02038 1.01966 1.01892 1.01816 1.01737 1.01656 1.01572 1.01487 1.014 1.01313 1.01226 1.0114 1.01056 1.00974 1.00896 1.0082 1.00748 1.0068 1.00614 1.00551 1.00491 1.00433 1.00377 1.00322 1.00268 1.00215 1.00163 1.00112 1.00061 1.00011 0.999605 0.999107 0.998612 0.99812 0.997632 0.997147 0.996665 0.996187 0.995713 0.995242 0.994774 0.994311 0.99385 0.993393 0.992939 0.992488 0.99204 0.991594 0.99115 0.990709 0.990268 0.98983 0.989393 0.988956 0.988521 0.988086 0.987651 0.987216 0.986781 0.986344 0.985907 0.985467 0.985026 0.984582 0.984135 0.983685 0.983233 0.982778 0.98232 0.98186 0.981399 0.980937 0.980474 0.98001 0.979544 0.979076 0.978603 0.978123 0.977633 0.977128 0.976604 0.976054 0.97547 0.974845 0.974168 0.973428 0.972614 0.971717 0.97073 0.969651 0.968489 0.967258 0.965972 0.964666 0.963371 0.962107 0.960914 0.960914 
1.03473 1.03486 1.03478 1.03466 1.03451 1.03432 1.03408 1.03381 1.0335 1.03314 1.03273 1.03229 1.03181 1.03129 1.03073 1.03014 1.02953 1.02889 1.02824 1.02758 1.02691 1.02624 1.02557 1.0249 1.02424 1.02358 1.02292 1.02227 1.02162 1.02097 1.0203 1.01963 1.01894 1.01822 1.01748 1.01671 1.01591 1.01509 1.01425 1.01339 1.01253 1.01167 1.01082 1.01 1.0092 1.00843 1.00769 1.00699 1.00632 1.00568 1.00506 1.00447 1.0039 1.00335 1.00281 1.00228 1.00176 1.00124 1.00073 1.00022 0.999721 0.99922 0.998722 0.998227 0.997735 0.997246 0.99676 0.996277 0.995797 0.995321 0.994847 0.994377 0.993909 0.993443 0.99298 0.992518 0.992058 0.991599 0.991141 0.990684 0.990228 0.989771 0.989315 0.988858 0.9884 0.987942 0.987483 0.987022 0.986559 0.986095 0.985627 0.985158 0.984685 0.984208 0.983729 0.983247 0.982761 0.982274 0.981785 0.981295 0.980805 0.980316 0.979828 0.979342 0.978857 0.978372 0.977886 0.977395 0.976898 0.976389 0.975864 0.975317 0.974741 0.974127 0.973465 0.972745 0.971953 0.971081 0.970121 0.969071 0.967935 0.966727 0.965465 0.964174 0.962887 0.961629 0.960426 0.960426 
1.03461 1.03473 1.03465 1.03452 1.03437 1.03416 1.03392 1.03364 1.03331 1.03294 1.03252 1.03206 1.03156 1.03102 1.03045 1.02985 1.02923 1.02859 1.02793 1.02727 1.0266 1.02594 1.02527 1.02462 1.02398 1.02334 1.02272 1.0221 1.02148 1.02086 1.02024 1.01961 1.01896 1.01829 1.01759 1.01687 1.01611 1.01532 1.0145 1.01366 1.01281 1.01195 1.0111 1.01026 1.00945 1.00866 1.00791 1.00719 1.0065 1.00585 1.00522 1.00463 1.00405 1.00349 1.00295 1.00241 1.00189 1.00137 1.00086 1.00035 0.999847 0.999344 0.998843 0.998345 0.997849 0.997355 0.996864 0.996376 0.99589 0.995407 0.994926 0.994447 0.99397 0.993494 0.993019 0.992545 0.992071 0.991597 0.991122 0.990646 0.99017 0.989692 0.989213 0.988733 0.98825 0.987766 0.987279 0.986789 0.986297 0.985802 0.985303 0.984801 0.984296 0.983787 0.983275 0.98276 0.982243 0.981724 0.981205 0.980687 0.980171 0.979658 0.979149 0.978644 0.978142 0.977643 0.977146 0.976647 0.976144 0.975633 0.975109 0.974566 0.973997 0.973395 0.972748 0.972046 0.971277 0.970429 0.969494 0.96847 0.967358 0.966169 0.964925 0.963647 0.962364 0.961106 0.959897 0.959897 
1.0345 1.03458 1.03449 1.03437 1.0342 1.034 1.03375 1.03345 1.03311 1.03272 1.03229 1.03182 1.0313 1.03075 1.03017 1.02956 1.02893 1.02829 1.02763 1.02697 1.02631 1.02566 1.02501 1.02438 1.02375 1.02314 1.02254 1.02195 1.02137 1.02079 1.02021 1.01961 1.019 1.01838 1.01772 1.01703 1.0163 1.01555 1.01475 1.01393 1.01309 1.01224 1.01139 1.01054 1.00972 1.00892 1.00814 1.00741 1.0067 1.00604 1.0054 1.00479 1.00421 1.00364 1.00309 1.00256 1.00203 1.00151 1.001 1.00049 0.999982 0.999476 0.998973 0.998472 0.997972 0.997474 0.996978 0.996484 0.995992 0.995501 0.995011 0.994523 0.994034 0.993546 0.993057 0.992568 0.992077 0.991584 0.991089 0.990592 0.990093 0.989591 0.989086 0.988579 0.988068 0.987555 0.987038 0.986518 0.985994 0.985466 0.984935 0.9844 0.983862 0.98332 0.982775 0.982229 0.981681 0.981134 0.980588 0.980045 0.979505 0.978971 0.978444 0.977922 0.977407 0.976897 0.976391 0.975886 0.975379 0.974867 0.974344 0.973806 0.973246 0.972654 0.972022 0.971338 0.970589 0.969764 0.968853 0.967851 0.966761 0.965591 0.96436 0.963092 0.961814 0.960555 0.95934 0.95934 
1.03436 1.03441 1.03432 1.03419 1.03402 1.03381 1.03355 1.03324 1.03289 1.03249 1.03205 1.03156 1.03104 1.03048 1.02989 1.02928 1.02865 1.028 1.02735 1.0267 1.02606 1.02542 1.02479 1.02418 1.02357 1.02299 1.02241 1.02185 1.0213 1.02075 1.02019 1.01964 1.01906 1.01847 1.01785 1.0172 1.01651 1.01578 1.01501 1.01421 1.01339 1.01254 1.01169 1.01084 1.01 1.00919 1.0084 1.00764 1.00692 1.00624 1.00559 1.00497 1.00437 1.0038 1.00325 1.00271 1.00218 1.00166 1.00115 1.00063 1.00012 0.999618 0.999112 0.998607 0.998104 0.997601 0.9971 0.9966 0.9961 0.9956 0.995101 0.994601 0.994099 0.993596 0.993091 0.992584 0.992073 0.991559 0.991041 0.990519 0.989994 0.989465 0.988932 0.988394 0.987853 0.987308 0.986759 0.986207 0.98565 0.985089 0.984524 0.983956 0.983385 0.982811 0.982235 0.981659 0.981083 0.98051 0.979939 0.979374 0.978815 0.978263 0.97772 0.977186 0.97666 0.976141 0.975629 0.975119 0.97461 0.974097 0.973577 0.973043 0.97249 0.97191 0.971292 0.970624 0.969895 0.969091 0.968201 0.967221 0.96615 0.964998 0.963779 0.96252 0.961246 0.959986 0.958766 0.958766 
1.0342 1.03421 1.03412 1.03399 1.03381 1.03359 1.03332 1.03301 1.03265 1.03224 1.03179 1.03129 1.03076 1.0302 1.02961 1.029 1.02837 1.02774 1.0271 1.02646 1.02583 1.02522 1.02461 1.02401 1.02343 1.02287 1.02232 1.02178 1.02125 1.02073 1.02021 1.01968 1.01914 1.01858 1.01799 1.01737 1.01672 1.01602 1.01528 1.0145 1.01369 1.01286 1.01201 1.01115 1.0103 1.00947 1.00867 1.00789 1.00715 1.00645 1.00579 1.00515 1.00455 1.00397 1.00341 1.00287 1.00234 1.00182 1.0013 1.00079 1.00028 0.999766 0.999258 0.998751 0.998243 0.997736 0.997229 0.996722 0.996213 0.995704 0.995192 0.994679 0.994162 0.993642 0.993118 0.992589 0.992056 0.991517 0.990973 0.990424 0.98987 0.98931 0.988746 0.988177 0.987603 0.987025 0.986443 0.985856 0.985265 0.984671 0.984073 0.983472 0.982869 0.982265 0.98166 0.981056 0.980455 0.979858 0.979266 0.978682 0.978107 0.977541 0.976986 0.976441 0.975907 0.975382 0.974864 0.974351 0.973841 0.973328 0.97281 0.972281 0.971735 0.971165 0.970559 0.969907 0.969196 0.968411 0.967543 0.966582 0.96553 0.964393 0.963187 0.961936 0.960666 0.959407 0.958185 0.958185 
1.034 1.03397 1.03388 1.03375 1.03357 1.03335 1.03308 1.03276 1.03239 1.03197 1.03152 1.03102 1.03049 1.02992 1.02934 1.02873 1.02812 1.0275 1.02687 1.02626 1.02565 1.02505 1.02446 1.02389 1.02334 1.0228 1.02227 1.02176 1.02125 1.02075 1.02025 1.01975 1.01923 1.0187 1.01815 1.01756 1.01693 1.01626 1.01555 1.0148 1.014 1.01318 1.01233 1.01148 1.01062 1.00978 1.00895 1.00816 1.00741 1.00669 1.006 1.00536 1.00474 1.00415 1.00359 1.00304 1.0025 1.00198 1.00146 1.00094 1.00043 0.999922 0.999411 0.998901 0.998389 0.997877 0.997364 0.996848 0.99633 0.995808 0.995284 0.994754 0.99422 0.99368 0.993134 0.992581 0.992022 0.991455 0.990883 0.990303 0.989717 0.989125 0.988528 0.987925 0.987317 0.986704 0.986087 0.985466 0.984841 0.984213 0.983583 0.982951 0.982318 0.981685 0.981054 0.980426 0.979802 0.979185 0.978575 0.977976 0.977387 0.97681 0.976245 0.975693 0.975153 0.974623 0.974102 0.973587 0.973075 0.972563 0.972047 0.971522 0.970983 0.970421 0.969828 0.96919 0.968495 0.967729 0.966879 0.965937 0.964902 0.96378 0.962587 0.961345 0.960081 0.958825 0.957603 0.957603 
1.03376 1.03369 1.0336 1.03347 1.0333 1.03307 1.0328 1.03247 1.0321 1.03169 1.03123 1.03074 1.03021 1.02965 1.02908 1.02849 1.02788 1.02728 1.02668 1.02609 1.0255 1.02492 1.02436 1.02382 1.02328 1.02276 1.02226 1.02176 1.02128 1.0208 1.02032 1.01984 1.01935 1.01884 1.01831 1.01775 1.01716 1.01652 1.01583 1.0151 1.01432 1.01351 1.01267 1.01182 1.01096 1.0101 1.00926 1.00845 1.00768 1.00694 1.00624 1.00557 1.00494 1.00434 1.00377 1.00321 1.00267 1.00215 1.00162 1.00111 1.00059 1.00008 0.999569 0.999055 0.99854 0.998022 0.9975 0.996975 0.996446 0.995911 0.99537 0.994822 0.994267 0.993704 0.993133 0.992554 0.991966 0.991369 0.990764 0.990152 0.989532 0.988906 0.988273 0.987635 0.986992 0.986344 0.985692 0.985037 0.984379 0.983719 0.983057 0.982396 0.981735 0.981076 0.980421 0.979772 0.979129 0.978495 0.977872 0.97726 0.976661 0.976075 0.975504 0.974946 0.974401 0.973868 0.973344 0.972827 0.972314 0.971803 0.971289 0.970768 0.970234 0.969681 0.969098 0.968474 0.967794 0.967045 0.966213 0.965288 0.96427 0.963163 0.961982 0.96075 0.959494 0.958243 0.957024 0.957024 
1.03347 1.03335 1.03327 1.03315 1.03297 1.03275 1.03248 1.03216 1.0318 1.03139 1.03094 1.03045 1.02993 1.02939 1.02883 1.02826 1.02768 1.0271 1.02652 1.02595 1.02538 1.02484 1.0243 1.02377 1.02326 1.02277 1.02228 1.0218 1.02134 1.02088 1.02042 1.01996 1.01949 1.019 1.0185 1.01796 1.01739 1.01678 1.01612 1.01541 1.01465 1.01386 1.01303 1.01217 1.01131 1.01044 1.00959 1.00877 1.00797 1.00721 1.00649 1.00581 1.00516 1.00455 1.00396 1.0034 1.00285 1.00232 1.0018 1.00128 1.00076 1.00025 0.999731 0.999213 0.998691 0.998166 0.997636 0.9971 0.996557 0.996006 0.995446 0.994878 0.994299 0.993711 0.993111 0.992502 0.991882 0.991253 0.990614 0.989967 0.989311 0.988649 0.98798 0.987306 0.986627 0.985944 0.985257 0.984569 0.983879 0.983188 0.982498 0.981809 0.981123 0.980442 0.979767 0.979099 0.978441 0.977794 0.97716 0.976539 0.975932 0.975341 0.974765 0.974203 0.973655 0.973119 0.972593 0.972074 0.971561 0.971049 0.970537 0.970019 0.969491 0.968945 0.968372 0.96776 0.967094 0.966361 0.965545 0.964637 0.963635 0.962543 0.961375 0.960154 0.958907 0.957664 0.95645 0.95645 
1.03312 1.03296 1.03288 1.03277 1.03261 1.03239 1.03213 1.03183 1.03147 1.03107 1.03064 1.03016 1.02966 1.02914 1.0286 1.02805 1.02749 1.02694 1.02638 1.02584 1.0253 1.02478 1.02427 1.02377 1.02327 1.0228 1.02233 1.02187 1.02142 1.02098 1.02054 1.02009 1.01964 1.01918 1.01869 1.01818 1.01763 1.01704 1.01641 1.01573 1.01499 1.01421 1.01339 1.01255 1.01168 1.01081 1.00994 1.0091 1.00829 1.00751 1.00676 1.00606 1.0054 1.00477 1.00417 1.0036 1.00304 1.0025 1.00197 1.00145 1.00093 1.00041 0.999893 0.99937 0.998842 0.998308 0.997767 0.997217 0.996658 0.996088 0.995508 0.994915 0.99431 0.993692 0.993062 0.99242 0.991766 0.991102 0.990427 0.989742 0.98905 0.988351 0.987645 0.986934 0.98622 0.985502 0.984783 0.984062 0.983342 0.982623 0.981906 0.981193 0.980486 0.979786 0.979094 0.978412 0.977742 0.977085 0.976443 0.975815 0.975204 0.974609 0.974029 0.973465 0.972914 0.972376 0.971848 0.971328 0.970814 0.970303 0.969791 0.969276 0.968753 0.968214 0.96765 0.967049 0.966396 0.965677 0.964876 0.963985 0.962998 0.96192 0.960766 0.959558 0.958322 0.957089 0.955884 0.955884 
1.0327 1.0325 1.03244 1.03234 1.03219 1.03199 1.03175 1.03146 1.03112 1.03074 1.03032 1.02987 1.0294 1.0289 1.02838 1.02786 1.02733 1.0268 1.02628 1.02576 1.02525 1.02475 1.02426 1.02378 1.02331 1.02286 1.02241 1.02197 1.02153 1.0211 1.02067 1.02025 1.01981 1.01936 1.0189 1.01841 1.01788 1.01732 1.01671 1.01605 1.01534 1.01458 1.01377 1.01293 1.01207 1.01119 1.01032 1.00946 1.00862 1.00782 1.00706 1.00634 1.00565 1.00501 1.00439 1.00381 1.00324 1.00269 1.00216 1.00163 1.0011 1.00058 1.00005 0.999524 0.998987 0.998442 0.997887 0.997322 0.996744 0.996153 0.995547 0.994927 0.994293 0.993643 0.992979 0.992302 0.991612 0.990909 0.990197 0.989475 0.988744 0.988007 0.987265 0.986518 0.985769 0.985018 0.984267 0.983517 0.982769 0.982024 0.981285 0.980551 0.979826 0.97911 0.978405 0.977713 0.977034 0.976371 0.975723 0.975092 0.974478 0.97388 0.973299 0.972733 0.972181 0.971641 0.971111 0.97059 0.970075 0.969563 0.969053 0.968541 0.968021 0.967488 0.966932 0.966341 0.965701 0.964995 0.964209 0.963332 0.96236 0.961297 0.960157 0.958963 0.95774 0.956518 0.955325 0.955325 
1.03221 1.03198 1.03194 1.03185 1.03172 1.03155 1.03133 1.03106 1.03075 1.03039 1.03 1.02958 1.02913 1.02866 1.02818 1.02768 1.02718 1.02669 1.02619 1.0257 1.02522 1.02475 1.02428 1.02382 1.02338 1.02294 1.0225 1.02208 1.02166 1.02124 1.02083 1.02042 1.02 1.01957 1.01912 1.01865 1.01815 1.01761 1.01702 1.01638 1.01569 1.01495 1.01416 1.01333 1.01247 1.01159 1.01071 1.00984 1.00898 1.00816 1.00737 1.00663 1.00592 1.00526 1.00463 1.00403 1.00345 1.00289 1.00235 1.00181 1.00128 1.00075 1.00021 0.999672 0.999123 0.998565 0.997994 0.997409 0.996809 0.996193 0.995559 0.994909 0.994241 0.993557 0.992856 0.992141 0.991412 0.990671 0.989919 0.989159 0.98839 0.987616 0.986837 0.986056 0.985274 0.984492 0.983711 0.982934 0.982161 0.981395 0.980636 0.979886 0.979146 0.978419 0.977704 0.977005 0.976321 0.975653 0.975003 0.97437 0.973755 0.973156 0.972574 0.972007 0.971454 0.970913 0.970382 0.969859 0.969343 0.968832 0.968322 0.967812 0.967296 0.966769 0.96622 0.965639 0.965009 0.964315 0.963542 0.962679 0.961722 0.960673 0.959548 0.958368 0.95716 0.955953 0.954774 0.954774 
1.03165 1.0314 1.03138 1.03132 1.03121 1.03106 1.03087 1.03063 1.03035 1.03003 1.02968 1.02929 1.02887 1.02843 1.02798 1.02752 1.02705 1.02659 1.02612 1.02566 1.02521 1.02476 1.02431 1.02388 1.02345 1.02303 1.02261 1.0222 1.0218 1.0214 1.021 1.0206 1.02019 1.01978 1.01935 1.0189 1.01842 1.0179 1.01734 1.01672 1.01606 1.01534 1.01456 1.01375 1.01289 1.01201 1.01112 1.01023 1.00936 1.00852 1.00771 1.00694 1.00621 1.00553 1.00488 1.00426 1.00367 1.00309 1.00254 1.00199 1.00145 1.00091 1.00036 0.99981 0.999247 0.998672 0.998081 0.997473 0.996847 0.996202 0.995537 0.994853 0.994149 0.993426 0.992687 0.991932 0.991163 0.990382 0.98959 0.988791 0.987984 0.987174 0.986361 0.985547 0.984733 0.983923 0.983116 0.982315 0.981522 0.980737 0.979962 0.979199 0.978449 0.977714 0.976994 0.97629 0.975604 0.974935 0.974284 0.973651 0.973036 0.972438 0.971855 0.971288 0.970734 0.970192 0.96966 0.969136 0.968619 0.968108 0.967599 0.967091 0.966579 0.966057 0.965515 0.964942 0.964322 0.963639 0.962878 0.962028 0.961084 0.96005 0.95894 0.957775 0.956583 0.955393 0.95423 0.95423 
1.03105 1.03078 1.03077 1.03074 1.03066 1.03054 1.03038 1.03018 1.02993 1.02965 1.02933 1.02898 1.02861 1.02821 1.02779 1.02736 1.02693 1.0265 1.02606 1.02563 1.0252 1.02478 1.02436 1.02394 1.02353 1.02313 1.02273 1.02234 1.02195 1.02156 1.02118 1.02079 1.0204 1.02 1.01959 1.01916 1.01869 1.0182 1.01766 1.01707 1.01643 1.01573 1.01497 1.01417 1.01332 1.01244 1.01155 1.01065 1.00976 1.0089 1.00807 1.00727 1.00652 1.00581 1.00514 1.0045 1.00389 1.0033 1.00273 1.00217 1.00162 1.00106 1.0005 0.999936 0.999355 0.998758 0.998144 0.997509 0.996854 0.996176 0.995475 0.994754 0.99401 0.993247 0.992467 0.99167 0.990859 0.990037 0.989206 0.988368 0.987525 0.98668 0.985834 0.984989 0.984148 0.983312 0.982483 0.981663 0.980852 0.980053 0.979267 0.978495 0.977739 0.976999 0.976276 0.975571 0.974885 0.974217 0.973567 0.972936 0.972321 0.971724 0.971142 0.970575 0.970021 0.969478 0.968945 0.96842 0.967903 0.967392 0.966884 0.966378 0.96587 0.965353 0.964817 0.964252 0.96364 0.962968 0.962218 0.961379 0.960448 0.959428 0.958332 0.957184 0.956009 0.954837 0.953693 0.953693 
1.0304 1.03012 1.03014 1.03012 1.03007 1.02999 1.02986 1.0297 1.0295 1.02926 1.02898 1.02867 1.02833 1.02797 1.02759 1.0272 1.02681 1.0264 1.026 1.0256 1.02519 1.0248 1.0244 1.02401 1.02362 1.02324 1.02285 1.02248 1.02211 1.02174 1.02136 1.02099 1.02062 1.02024 1.01984 1.01942 1.01898 1.01851 1.01799 1.01742 1.0168 1.01613 1.01539 1.0146 1.01376 1.01289 1.01199 1.01108 1.01018 1.0093 1.00844 1.00762 1.00684 1.0061 1.00541 1.00475 1.00412 1.00352 1.00293 1.00235 1.00178 1.00121 1.00063 1.00005 0.999443 0.998821 0.99818 0.997514 0.996824 0.996111 0.99537 0.994607 0.993822 0.993015 0.99219 0.991351 0.990498 0.989635 0.988765 0.987889 0.987012 0.986134 0.985258 0.984386 0.983521 0.982663 0.981816 0.980979 0.980156 0.979347 0.978554 0.977777 0.977017 0.976276 0.975554 0.97485 0.974166 0.9735 0.972853 0.972224 0.971612 0.971016 0.970435 0.969869 0.969314 0.968771 0.968238 0.967713 0.967196 0.966685 0.966179 0.965675 0.96517 0.964657 0.964128 0.963569 0.962966 0.962302 0.961561 0.960733 0.959814 0.958807 0.957726 0.956595 0.955438 0.954286 0.953162 0.953162 
1.02972 1.02945 1.02949 1.02949 1.02947 1.02942 1.02933 1.0292 1.02904 1.02884 1.02861 1.02834 1.02805 1.02773 1.02739 1.02703 1.02667 1.0263 1.02593 1.02555 1.02518 1.02481 1.02443 1.02406 1.0237 1.02333 1.02297 1.02262 1.02226 1.02191 1.02155 1.0212 1.02084 1.02047 1.02009 1.0197 1.01927 1.01882 1.01832 1.01778 1.01718 1.01653 1.01581 1.01504 1.01421 1.01334 1.01244 1.01153 1.01061 1.0097 1.00883 1.00798 1.00717 1.00641 1.00569 1.00501 1.00436 1.00373 1.00312 1.00253 1.00194 1.00135 1.00075 1.00014 0.999511 0.998859 0.998185 0.997487 0.996755 0.996001 0.99522 0.99441 0.993579 0.992728 0.991858 0.990974 0.99008 0.989175 0.988267 0.987356 0.986445 0.985538 0.984635 0.98374 0.982854 0.981979 0.981118 0.98027 0.979438 0.978623 0.977826 0.977048 0.976289 0.975549 0.974829 0.974129 0.973449 0.972787 0.972143 0.971517 0.970908 0.970314 0.969735 0.969169 0.968615 0.968072 0.967538 0.967014 0.966497 0.965987 0.965483 0.964982 0.964481 0.963973 0.963448 0.962896 0.962299 0.961642 0.96091 0.960091 0.959182 0.958188 0.957123 0.956008 0.954871 0.953739 0.952638 0.952638 
1.02903 1.02879 1.02883 1.02886 1.02886 1.02884 1.02878 1.0287 1.02857 1.02842 1.02822 1.028 1.02774 1.02746 1.02716 1.02684 1.02651 1.02618 1.02583 1.02549 1.02514 1.0248 1.02445 1.02411 1.02376 1.02342 1.02308 1.02275 1.02241 1.02208 1.02174 1.0214 1.02106 1.02071 1.02035 1.01997 1.01957 1.01914 1.01866 1.01814 1.01756 1.01693 1.01623 1.01548 1.01466 1.0138 1.0129 1.01198 1.01105 1.01012 1.00922 1.00835 1.00752 1.00673 1.00598 1.00527 1.0046 1.00394 1.00332 1.00271 1.00209 1.00148 1.00086 1.00021 0.999555 0.998873 0.998156 0.99742 0.996653 0.995847 0.995021 0.994166 0.993283 0.992384 0.991471 0.990538 0.989603 0.98866 0.987714 0.986772 0.98583 0.984896 0.983971 0.983056 0.982154 0.981266 0.980394 0.979539 0.978703 0.977886 0.977089 0.976312 0.975556 0.974821 0.974105 0.97341 0.972734 0.972077 0.971438 0.970816 0.97021 0.969618 0.969041 0.968476 0.967923 0.967381 0.966848 0.966324 0.965808 0.9653 0.964798 0.9643 0.963802 0.963299 0.962779 0.962232 0.961641 0.96099 0.960265 0.959454 0.958555 0.957573 0.956522 0.955424 0.954307 0.953198 0.95212 0.95212 