# vtk DataFile Version 3.0
LBM simulation at step 270
ASCII
DATASET STRUCTURED_POINTS
DIMENSIONS 128 128 1
ORIGIN 0 0 0
SPACING 1 1 1
POINT_DATA 16384
SCALARS density float
LOOKUP_TABLE default
0.945825 1.01079 1.01246 1.00921 1.00947 1.00974 1.00969 1.00971 1.00979 1.0099 1.01002 1.01015 1.0103 1.01046 1.01062 1.01079 1.01096 1.01112 1.01128 1.01143 1.01158 1.0117 1.01181 1.0119 1.01197 1.01201 1.01203 1.01202 1.01199 1.01193 1.01184 1.01173 1.01159 1.01143 1.01125 1.01105 1.01082 1.01058 1.01031 1.01002 1.00971 1.00937 1.00901 1.00861 1.00819 1.00773 1.00723 1.00669 1.00612 1.0055 1.00485 1.00415 1.00342 1.00264 1.00183 1.00098 1.00009 0.999169 0.998212 0.997219 0.996189 0.995121 0.994013 0.992863 0.991667 0.990424 0.989131 0.987786 0.986391 0.984947 0.983458 0.981931 0.980373 0.978795 0.97721 0.97563 0.974068 0.972537 0.971047 0.969607 0.968224 0.966902 0.965642 0.964444 0.963304 0.962219 0.961181 0.960185 0.959224 0.958291 0.957377 0.956478 0.955586 0.954696 0.953804 0.952907 0.952003 0.951093 0.950178 0.949261 0.948345 0.947436 0.946538 0.945656 0.944792 0.943949 0.943128 0.942328 0.941547 0.940784 0.940034 0.939294 0.938562 0.937833 0.937103 0.93637 0.93563 0.934879 0.934111 0.933326 0.932501 0.931619 0.930715 0.930089 0.928031 0.926358 0.942257 0.942257 
1.01299 1.01138 1.0076 1.00887 1.00975 1.00974 1.00969 1.00973 1.00981 1.0099 1.01002 1.01016 1.0103 1.01045 1.01061 1.01077 1.01094 1.0111 1.01126 1.01141 1.01154 1.01167 1.01178 1.01186 1.01193 1.01197 1.01199 1.01198 1.01195 1.01189 1.0118 1.01169 1.01156 1.0114 1.01121 1.01101 1.01079 1.01054 1.01027 1.00998 1.00966 1.00932 1.00895 1.00855 1.00812 1.00766 1.00716 1.00662 1.00604 1.00542 1.00477 1.00407 1.00333 1.00256 1.00174 1.00089 1.00001 0.999085 0.998128 0.997135 0.996107 0.99504 0.993934 0.992787 0.991595 0.990357 0.989071 0.987736 0.986351 0.984919 0.983444 0.981931 0.980387 0.978824 0.977253 0.975685 0.974133 0.97261 0.971125 0.969689 0.968307 0.966983 0.965721 0.964519 0.963374 0.962283 0.96124 0.960239 0.959272 0.958332 0.957413 0.956508 0.955611 0.954716 0.953819 0.952918 0.952011 0.951098 0.950181 0.949263 0.948348 0.94744 0.946543 0.945663 0.944801 0.943959 0.943138 0.942337 0.941555 0.940788 0.940035 0.939291 0.938553 0.937817 0.93708 0.936338 0.935588 0.934824 0.934043 0.933243 0.932413 0.931495 0.930406 0.929506 0.929806 0.930462 0.928166 0.928166 
1.02027 1.00829 1.00769 1.0102 1.00987 1.00954 1.00965 1.00978 1.00986 1.00995 1.01006 1.01019 1.01033 1.01048 1.01064 1.01079 1.01095 1.01111 1.01126 1.01141 1.01154 1.01166 1.01176 1.01185 1.01191 1.01195 1.01197 1.01196 1.01193 1.01187 1.01178 1.01167 1.01153 1.01137 1.01119 1.01099 1.01076 1.01051 1.01024 1.00994 1.00962 1.00927 1.0089 1.00849 1.00805 1.00758 1.00707 1.00653 1.00595 1.00533 1.00466 1.00397 1.00323 1.00245 1.00164 1.00078 0.999899 0.998977 0.998021 0.997029 0.996001 0.994937 0.993833 0.992689 0.991502 0.990271 0.988993 0.987668 0.986296 0.984879 0.983419 0.981924 0.980399 0.978854 0.9773 0.975748 0.974211 0.972699 0.971223 0.969792 0.968414 0.967092 0.965828 0.964624 0.963475 0.96238 0.961331 0.960324 0.959352 0.958407 0.957482 0.956571 0.955668 0.954767 0.953865 0.952959 0.952047 0.95113 0.95021 0.949289 0.948373 0.947464 0.946568 0.945689 0.944828 0.943988 0.943168 0.942369 0.941587 0.94082 0.940065 0.939319 0.938578 0.937838 0.937097 0.936349 0.935592 0.934823 0.934034 0.933207 0.932347 0.931509 0.930671 0.929589 0.928766 0.926688 0.920166 0.920166 
1.00528 1.00993 1.01196 1.0097 1.00913 1.0097 1.00987 1.00984 1.0099 1.01001 1.01013 1.01026 1.0104 1.01054 1.01069 1.01085 1.011 1.01115 1.0113 1.01144 1.01157 1.01168 1.01178 1.01186 1.01192 1.01195 1.01197 1.01196 1.01192 1.01186 1.01177 1.01166 1.01152 1.01136 1.01118 1.01097 1.01074 1.01048 1.0102 1.0099 1.00957 1.00922 1.00883 1.00842 1.00797 1.00749 1.00698 1.00643 1.00584 1.00521 1.00455 1.00384 1.0031 1.00232 1.00151 1.00066 0.999772 0.998851 0.997895 0.996905 0.995878 0.994815 0.993714 0.992573 0.99139 0.990165 0.988895 0.98758 0.986221 0.984819 0.983378 0.981902 0.980399 0.978876 0.977344 0.975813 0.974294 0.972799 0.971336 0.969916 0.968544 0.967226 0.965963 0.964758 0.963607 0.962507 0.961454 0.960441 0.959463 0.958511 0.957581 0.956664 0.955754 0.954848 0.95394 0.953027 0.95211 0.951189 0.950265 0.949341 0.948423 0.947513 0.946618 0.945739 0.94488 0.944041 0.943224 0.942426 0.941646 0.94088 0.940126 0.939379 0.938638 0.937897 0.937155 0.936406 0.935647 0.934872 0.934083 0.933275 0.932419 0.931493 0.930626 0.929753 0.928494 0.926305 0.922149 0.922149 
1.00953 1.01054 1.0097 1.00932 1.00995 1.00994 1.0098 1.00989 1.01002 1.01013 1.01023 1.01036 1.0105 1.01064 1.01078 1.01093 1.01108 1.01122 1.01136 1.01149 1.01161 1.01172 1.01181 1.01189 1.01194 1.01197 1.01198 1.01197 1.01193 1.01186 1.01177 1.01166 1.01152 1.01136 1.01117 1.01096 1.01072 1.01046 1.01018 1.00986 1.00953 1.00916 1.00877 1.00834 1.00788 1.00739 1.00687 1.00631 1.00571 1.00508 1.00441 1.0037 1.00296 1.00218 1.00136 1.00051 0.999626 0.998706 0.997751 0.996761 0.995736 0.994674 0.993574 0.992435 0.991257 0.990037 0.988774 0.98747 0.986124 0.984739 0.983318 0.981865 0.980386 0.978889 0.977383 0.975878 0.974383 0.972908 0.971463 0.970056 0.968695 0.967383 0.966124 0.964919 0.963766 0.962662 0.961604 0.960586 0.959602 0.958644 0.957707 0.956784 0.955868 0.954955 0.954041 0.953123 0.9522 0.951274 0.950346 0.949419 0.948499 0.947588 0.946693 0.945815 0.944958 0.944122 0.943307 0.942512 0.941734 0.940971 0.940219 0.939474 0.938735 0.937996 0.937255 0.936509 0.935754 0.934984 0.934193 0.933382 0.932559 0.931693 0.930763 0.929716 0.928156 0.926797 0.925727 0.925727 
1.01056 1.00982 1.00944 1.01012 1.01006 1.0098 1.00993 1.01008 1.01015 1.01024 1.01036 1.01049 1.01062 1.01076 1.0109 1.01104 1.01118 1.01132 1.01145 1.01157 1.01168 1.01178 1.01186 1.01193 1.01198 1.01201 1.01201 1.01199 1.01195 1.01188 1.01179 1.01167 1.01153 1.01137 1.01117 1.01096 1.01071 1.01044 1.01015 1.00983 1.00948 1.0091 1.00869 1.00825 1.00778 1.00728 1.00674 1.00617 1.00557 1.00493 1.00425 1.00354 1.00279 1.00201 1.0012 1.00035 0.99946 0.998541 0.997586 0.996597 0.995572 0.994511 0.993413 0.992277 0.991101 0.989887 0.988633 0.987339 0.986008 0.984641 0.983242 0.981813 0.980362 0.978895 0.977419 0.975942 0.974474 0.973024 0.971601 0.970211 0.968862 0.967559 0.966305 0.965102 0.963948 0.962842 0.96178 0.960757 0.959767 0.958803 0.957859 0.956929 0.956007 0.955088 0.954167 0.953244 0.952316 0.951384 0.950452 0.949523 0.9486 0.947689 0.946794 0.945918 0.945063 0.94423 0.943418 0.942627 0.941853 0.941093 0.940345 0.939605 0.938869 0.938135 0.937399 0.936658 0.935908 0.935149 0.934375 0.933576 0.932753 0.931909 0.930997 0.930031 0.928844 0.927718 0.927087 0.927087 
1.00926 1.00989 1.01013 1.01006 1.00989 1.01005 1.01018 1.0102 1.01028 1.01041 1.01053 1.01065 1.01077 1.01091 1.01104 1.01117 1.0113 1.01143 1.01155 1.01166 1.01177 1.01186 1.01193 1.01199 1.01203 1.01205 1.01205 1.01203 1.01198 1.01191 1.01182 1.0117 1.01155 1.01138 1.01118 1.01096 1.01071 1.01043 1.01012 1.00979 1.00943 1.00903 1.00861 1.00816 1.00767 1.00716 1.00661 1.00603 1.00541 1.00476 1.00408 1.00336 1.00261 1.00183 1.00101 1.00016 0.999275 0.998355 0.997401 0.996413 0.995388 0.994328 0.993231 0.992097 0.990925 0.989716 0.988471 0.98719 0.985874 0.984527 0.98315 0.981749 0.980328 0.978892 0.977449 0.976005 0.974567 0.973145 0.971745 0.970376 0.969042 0.96775 0.966503 0.965303 0.96415 0.963042 0.961977 0.960949 0.959953 0.958984 0.958034 0.957098 0.95617 0.955245 0.954319 0.953389 0.952456 0.95152 0.950584 0.949652 0.948728 0.947817 0.946922 0.946048 0.945195 0.944366 0.943559 0.942772 0.942003 0.941248 0.940506 0.939771 0.939041 0.938313 0.937585 0.936853 0.936114 0.935365 0.934606 0.933832 0.933036 0.932217 0.931331 0.930413 0.929561 0.928653 0.927868 0.927868 
1.00964 1.01006 1.01012 1.01006 1.01017 1.01028 1.01029 1.01037 1.01049 1.0106 1.0107 1.01082 1.01095 1.01107 1.0112 1.01132 1.01144 1.01156 1.01167 1.01177 1.01186 1.01194 1.01201 1.01206 1.0121 1.01211 1.01211 1.01208 1.01203 1.01196 1.01186 1.01173 1.01158 1.01141 1.0112 1.01097 1.01071 1.01042 1.0101 1.00975 1.00937 1.00896 1.00853 1.00806 1.00755 1.00702 1.00646 1.00586 1.00524 1.00458 1.00389 1.00317 1.00241 1.00163 1.00081 0.999955 0.99907 0.99815 0.997196 0.996208 0.995184 0.994124 0.993028 0.991897 0.990729 0.989527 0.98829 0.987022 0.985723 0.984396 0.983045 0.981673 0.980283 0.978881 0.977473 0.976063 0.974658 0.973266 0.971893 0.970546 0.96923 0.967951 0.966713 0.965518 0.964367 0.963258 0.96219 0.961159 0.960159 0.959184 0.958229 0.957288 0.956355 0.955424 0.954493 0.953559 0.952621 0.951681 0.950742 0.949808 0.948882 0.947971 0.947077 0.946205 0.945356 0.944531 0.943729 0.942947 0.942184 0.941435 0.940699 0.939971 0.939249 0.93853 0.93781 0.937089 0.936364 0.935632 0.93489 0.934137 0.933369 0.932586 0.931787 0.930953 0.930173 0.929415 0.928662 0.928662 
1.00999 1.01018 1.01021 1.0103 1.0104 1.01042 1.0105 1.01061 1.0107 1.01079 1.01091 1.01102 1.01113 1.01125 1.01136 1.01148 1.01159 1.01169 1.01179 1.01188 1.01197 1.01204 1.0121 1.01214 1.01217 1.01218 1.01217 1.01214 1.01209 1.01201 1.01191 1.01178 1.01162 1.01144 1.01123 1.01098 1.01071 1.01041 1.01008 1.00971 1.00932 1.00889 1.00843 1.00795 1.00743 1.00688 1.0063 1.00569 1.00505 1.00439 1.00369 1.00296 1.0022 1.00141 1.00059 0.999734 0.998847 0.997927 0.996973 0.995984 0.99496 0.993901 0.992806 0.991677 0.990514 0.989319 0.988093 0.986838 0.985557 0.984252 0.982927 0.981585 0.980228 0.978862 0.977489 0.976116 0.974746 0.973386 0.972041 0.970717 0.969421 0.968157 0.966929 0.965741 0.964593 0.963485 0.962416 0.961382 0.960379 0.959401 0.958442 0.957496 0.956559 0.955624 0.954689 0.953751 0.95281 0.951867 0.950925 0.949989 0.949063 0.948152 0.94726 0.946391 0.945545 0.944725 0.943928 0.943152 0.942395 0.941654 0.940924 0.940204 0.939491 0.938781 0.938073 0.937365 0.936654 0.935939 0.935218 0.934491 0.933754 0.933004 0.932262 0.931518 0.930775 0.930092 0.929447 0.929447 
1.0101 1.0104 1.01047 1.01054 1.01059 1.01066 1.01076 1.01084 1.01092 1.01102 1.01113 1.01123 1.01133 1.01144 1.01154 1.01164 1.01174 1.01183 1.01192 1.012 1.01208 1.01214 1.01219 1.01223 1.01226 1.01226 1.01225 1.01222 1.01216 1.01208 1.01197 1.01184 1.01167 1.01148 1.01126 1.011 1.01072 1.0104 1.01005 1.00967 1.00926 1.00881 1.00834 1.00783 1.00729 1.00673 1.00613 1.00551 1.00486 1.00418 1.00347 1.00274 1.00197 1.00118 1.00035 0.999497 0.998608 0.997687 0.996731 0.995742 0.994717 0.993658 0.992565 0.991439 0.990281 0.989094 0.987879 0.986639 0.985376 0.984095 0.982797 0.981486 0.980163 0.978833 0.977498 0.976161 0.974827 0.9735 0.972185 0.970887 0.969612 0.968364 0.967149 0.965968 0.964825 0.963719 0.96265 0.961615 0.96061 0.959629 0.958668 0.95772 0.95678 0.955842 0.954905 0.953964 0.953021 0.952076 0.951133 0.950196 0.94927 0.94836 0.94747 0.946604 0.945763 0.944947 0.944156 0.943386 0.942636 0.941902 0.941181 0.94047 0.939766 0.939067 0.938371 0.937676 0.93698 0.936284 0.935584 0.934881 0.934176 0.933468 0.932761 0.932071 0.931386 0.930738 0.930143 0.930143 
1.01039 1.01067 1.01073 1.01079 1.01085 1.01093 1.01101 1.01108 1.01117 1.01126 1.01135 1.01144 1.01154 1.01163 1.01172 1.01181 1.01189 1.01197 1.01205 1.01213 1.01219 1.01225 1.0123 1.01233 1.01235 1.01236 1.01234 1.0123 1.01224 1.01216 1.01204 1.0119 1.01173 1.01153 1.01129 1.01102 1.01072 1.01039 1.01002 1.00962 1.00919 1.00873 1.00823 1.00771 1.00715 1.00657 1.00596 1.00532 1.00466 1.00397 1.00325 1.00251 1.00174 1.00094 1.00011 0.999247 0.998355 0.997431 0.996474 0.995482 0.994457 0.993398 0.992307 0.991184 0.990032 0.988853 0.98765 0.986425 0.985183 0.983926 0.982656 0.981376 0.980089 0.978795 0.977498 0.976199 0.974901 0.973608 0.972323 0.971052 0.969799 0.968569 0.967367 0.966196 0.965059 0.963957 0.96289 0.961855 0.960849 0.959868 0.958906 0.957957 0.957015 0.956077 0.955138 0.954197 0.953253 0.952308 0.951364 0.950428 0.949503 0.948595 0.947708 0.946845 0.946008 0.945198 0.944412 0.943649 0.942906 0.94218 0.941467 0.940765 0.940071 0.939384 0.9387 0.938019 0.937339 0.936661 0.935982 0.935303 0.934625 0.933952 0.933281 0.932623 0.931985 0.931368 0.93079 0.93079 
1.01073 1.01097 1.01102 1.01109 1.01115 1.01122 1.01128 1.01136 1.01144 1.01151 1.01159 1.01167 1.01174 1.01182 1.0119 1.01197 1.01205 1.01212 1.01219 1.01225 1.01231 1.01236 1.01241 1.01244 1.01246 1.01246 1.01244 1.0124 1.01233 1.01224 1.01212 1.01197 1.01179 1.01158 1.01133 1.01105 1.01073 1.01038 1.01 1.00958 1.00913 1.00864 1.00813 1.00758 1.00701 1.00641 1.00578 1.00513 1.00446 1.00375 1.00303 1.00227 1.00149 1.00069 0.999851 0.998986 0.99809 0.997162 0.996201 0.995207 0.99418 0.993121 0.992031 0.990912 0.989766 0.988597 0.987406 0.986199 0.984978 0.983745 0.982504 0.981256 0.980004 0.978747 0.977487 0.976226 0.974965 0.973706 0.972453 0.971209 0.969979 0.968768 0.96758 0.96642 0.965291 0.964194 0.96313 0.962098 0.961093 0.960113 0.959152 0.958203 0.957263 0.956326 0.955388 0.954448 0.953505 0.952561 0.951619 0.950684 0.949761 0.948856 0.947972 0.947113 0.946281 0.945476 0.944697 0.94394 0.943205 0.942486 0.941782 0.94109 0.940406 0.93973 0.939059 0.938392 0.937728 0.937067 0.936408 0.935752 0.935099 0.934452 0.933813 0.933184 0.932574 0.931984 0.93142 0.93142 
1.01107 1.01131 1.01136 1.01141 1.01147 1.01153 1.01159 1.01165 1.01171 1.01177 1.01183 1.01189 1.01195 1.01202 1.01208 1.01214 1.0122 1.01226 1.01232 1.01238 1.01244 1.01249 1.01253 1.01256 1.01257 1.01257 1.01255 1.01251 1.01244 1.01234 1.01221 1.01205 1.01186 1.01163 1.01137 1.01107 1.01074 1.01037 1.00997 1.00953 1.00906 1.00856 1.00802 1.00746 1.00687 1.00625 1.00561 1.00494 1.00425 1.00354 1.0028 1.00203 1.00124 1.00043 0.999587 0.998715 0.997813 0.99688 0.995914 0.994917 0.993888 0.992829 0.99174 0.990625 0.989486 0.988327 0.98715 0.985961 0.984761 0.983554 0.982342 0.981127 0.979909 0.978689 0.977466 0.976243 0.975018 0.973793 0.972571 0.971355 0.970149 0.968958 0.967786 0.966639 0.965519 0.964429 0.96337 0.962341 0.96134 0.960362 0.959403 0.958458 0.957521 0.956587 0.955652 0.954715 0.953775 0.952834 0.951895 0.950963 0.950044 0.949142 0.948263 0.947409 0.946582 0.945782 0.945009 0.94426 0.943531 0.942821 0.942125 0.941442 0.940769 0.940104 0.939446 0.938792 0.938144 0.937499 0.936859 0.936223 0.935593 0.934969 0.934355 0.933752 0.933163 0.932594 0.932045 0.932045 
1.01145 1.01167 1.01172 1.01177 1.01181 1.01186 1.0119 1.01195 1.01199 1.01203 1.01208 1.01212 1.01217 1.01221 1.01226 1.01231 1.01236 1.01241 1.01246 1.01252 1.01257 1.01261 1.01265 1.01268 1.0127 1.0127 1.01267 1.01263 1.01255 1.01245 1.01231 1.01214 1.01193 1.01169 1.01141 1.0111 1.01074 1.01036 1.00994 1.00948 1.00899 1.00847 1.00792 1.00734 1.00673 1.00609 1.00543 1.00475 1.00405 1.00332 1.00257 1.00179 1.00099 1.00017 0.999318 0.998437 0.997527 0.996587 0.995616 0.994614 0.993582 0.992522 0.991435 0.990324 0.989192 0.988044 0.986882 0.985711 0.984533 0.983352 0.98217 0.980986 0.979803 0.978619 0.977433 0.976246 0.975057 0.973866 0.972676 0.971488 0.970307 0.969136 0.967982 0.966848 0.965739 0.964657 0.963605 0.962582 0.961585 0.960613 0.959659 0.958719 0.957787 0.956858 0.955929 0.954997 0.954062 0.953126 0.952192 0.951266 0.950351 0.949454 0.94858 0.947731 0.94691 0.946116 0.945349 0.944607 0.943885 0.943183 0.942496 0.941822 0.941159 0.940505 0.939859 0.939219 0.938585 0.937957 0.937333 0.936716 0.936105 0.935502 0.934908 0.934326 0.933757 0.933204 0.93267 0.93267 
1.01186 1.01207 1.01211 1.01214 1.01218 1.01221 1.01223 1.01226 1.01228 1.01231 1.01233 1.01235 1.01238 1.01241 1.01244 1.01248 1.01252 1.01256 1.01261 1.01266 1.01271 1.01275 1.01279 1.01282 1.01283 1.01283 1.0128 1.01275 1.01267 1.01256 1.01241 1.01223 1.01201 1.01175 1.01145 1.01112 1.01075 1.01035 1.00991 1.00943 1.00892 1.00838 1.00781 1.00721 1.00659 1.00594 1.00526 1.00457 1.00385 1.00311 1.00234 1.00155 1.00074 0.999907 0.999044 0.998154 0.997234 0.996286 0.995307 0.9943 0.993264 0.992202 0.991116 0.99001 0.988886 0.987749 0.986603 0.98545 0.984295 0.98314 0.981987 0.980835 0.979685 0.978536 0.977386 0.976235 0.975081 0.973924 0.972764 0.971605 0.970449 0.9693 0.968164 0.967045 0.965948 0.964877 0.963833 0.962817 0.961828 0.960862 0.959916 0.958983 0.958058 0.957137 0.956216 0.955292 0.954364 0.953436 0.952509 0.951589 0.950681 0.94979 0.948922 0.948079 0.947264 0.946477 0.945717 0.944981 0.944267 0.943572 0.942893 0.942229 0.941576 0.940932 0.940298 0.939671 0.939051 0.938437 0.93783 0.937229 0.936636 0.936051 0.935476 0.934911 0.934359 0.93382 0.933298 0.933298 
1.01228 1.01248 1.01251 1.01254 1.01255 1.01257 1.01257 1.01258 1.01258 1.01258 1.01258 1.01259 1.0126 1.01261 1.01263 1.01265 1.01268 1.01272 1.01276 1.01281 1.01286 1.0129 1.01294 1.01297 1.01298 1.01298 1.01295 1.01289 1.0128 1.01268 1.01252 1.01232 1.01208 1.01181 1.0115 1.01115 1.01076 1.01034 1.00988 1.00938 1.00886 1.0083 1.00771 1.0071 1.00646 1.00579 1.0051 1.00439 1.00365 1.0029 1.00212 1.00132 1.00049 0.999645 0.998769 0.997867 0.996936 0.995977 0.99499 0.993975 0.992935 0.991871 0.990786 0.989684 0.988569 0.987443 0.986313 0.98518 0.984047 0.982918 0.981793 0.980672 0.979554 0.978439 0.977324 0.976207 0.975087 0.973963 0.972834 0.971703 0.970573 0.969447 0.96833 0.967228 0.966145 0.965086 0.964052 0.963046 0.962066 0.961109 0.960171 0.959248 0.958333 0.957422 0.956511 0.955597 0.95468 0.953761 0.952844 0.951932 0.951033 0.95015 0.949289 0.948454 0.947645 0.946865 0.946111 0.945382 0.944675 0.943988 0.943317 0.942661 0.942018 0.941385 0.940762 0.940147 0.93954 0.93894 0.938347 0.937762 0.937185 0.936616 0.936057 0.935508 0.934971 0.934446 0.933936 0.933936 
1.01272 1.01291 1.01293 1.01294 1.01294 1.01294 1.01292 1.01291 1.01288 1.01286 1.01284 1.01283 1.01282 1.01281 1.01282 1.01283 1.01286 1.01289 1.01293 1.01297 1.01302 1.01307 1.0131 1.01313 1.01314 1.01314 1.0131 1.01304 1.01294 1.0128 1.01263 1.01242 1.01217 1.01188 1.01155 1.01118 1.01077 1.01033 1.00985 1.00934 1.0088 1.00822 1.00762 1.00699 1.00633 1.00565 1.00495 1.00422 1.00347 1.0027 1.0019 1.00109 1.00025 0.999384 0.998494 0.997577 0.996633 0.995662 0.994665 0.993642 0.992597 0.99153 0.990447 0.989349 0.988242 0.987128 0.986013 0.984899 0.983789 0.982685 0.981587 0.980496 0.97941 0.978327 0.977245 0.976161 0.975074 0.973981 0.972883 0.97178 0.970676 0.969573 0.968477 0.967393 0.966326 0.965281 0.96426 0.963265 0.962296 0.96135 0.960424 0.959512 0.95861 0.957712 0.956813 0.955912 0.955007 0.9541 0.953195 0.952294 0.951405 0.950532 0.94968 0.948852 0.948052 0.947278 0.946532 0.94581 0.94511 0.94443 0.943767 0.94312 0.942485 0.941862 0.94125 0.940646 0.940051 0.939464 0.938886 0.938315 0.937752 0.937198 0.936654 0.936119 0.935595 0.935083 0.934584 0.934584 
1.01316 1.01335 1.01336 1.01335 1.01334 1.01331 1.01328 1.01324 1.0132 1.01315 1.01311 1.01308 1.01305 1.01303 1.01302 1.01302 1.01304 1.01307 1.0131 1.01315 1.0132 1.01324 1.01328 1.01331 1.01332 1.01331 1.01326 1.01319 1.01308 1.01294 1.01275 1.01252 1.01226 1.01195 1.0116 1.01121 1.01079 1.01033 1.00983 1.00931 1.00875 1.00816 1.00754 1.00689 1.00622 1.00552 1.0048 1.00406 1.00329 1.00251 1.0017 1.00086 1.00001 0.999125 0.998219 0.997286 0.996327 0.995343 0.994335 0.993303 0.992251 0.991182 0.990099 0.989006 0.987907 0.986805 0.985705 0.98461 0.983521 0.982441 0.981369 0.980306 0.979249 0.978197 0.977146 0.976094 0.975038 0.973976 0.972908 0.971834 0.970756 0.969677 0.968603 0.967539 0.96649 0.96546 0.964454 0.963473 0.962517 0.961584 0.960671 0.959774 0.958886 0.958003 0.957119 0.956234 0.955344 0.954452 0.95356 0.952673 0.951796 0.950934 0.950092 0.949274 0.948482 0.947717 0.946978 0.946263 0.94557 0.944898 0.944243 0.943603 0.942978 0.942364 0.941761 0.941169 0.940585 0.940011 0.939444 0.938887 0.938337 0.937797 0.937266 0.936745 0.936233 0.935733 0.935245 0.935245 
1.0136 1.01379 1.01379 1.01377 1.01374 1.0137 1.01364 1.01358 1.01351 1.01345 1.01339 1.01333 1.01329 1.01325 1.01323 1.01323 1.01324 1.01326 1.0133 1.01334 1.01339 1.01343 1.01347 1.0135 1.0135 1.01349 1.01344 1.01336 1.01324 1.01308 1.01288 1.01263 1.01235 1.01203 1.01166 1.01126 1.01081 1.01034 1.00982 1.00928 1.0087 1.0081 1.00746 1.0068 1.00612 1.0054 1.00467 1.00391 1.00313 1.00232 1.0015 1.00065 0.99977 0.99887 0.997945 0.996995 0.996021 0.995022 0.994001 0.99296 0.991901 0.990829 0.989746 0.988656 0.987565 0.986474 0.985389 0.984311 0.983242 0.982185 0.981137 0.9801 0.979071 0.978047 0.977026 0.976003 0.974977 0.973945 0.972906 0.97186 0.970809 0.969756 0.968705 0.967662 0.966632 0.96562 0.96463 0.963665 0.962725 0.961808 0.960911 0.96003 0.959159 0.958293 0.957428 0.95656 0.955688 0.954813 0.953937 0.953066 0.952203 0.951355 0.950525 0.949718 0.948936 0.94818 0.947448 0.946741 0.946056 0.94539 0.944743 0.944111 0.943494 0.942889 0.942296 0.941714 0.941141 0.940578 0.940023 0.939478 0.938941 0.938413 0.937894 0.937385 0.936886 0.936397 0.935918 0.935918 
1.01404 1.01424 1.01423 1.01419 1.01415 1.01408 1.01401 1.01392 1.01384 1.01375 1.01367 1.0136 1.01354 1.01349 1.01346 1.01345 1.01346 1.01348 1.01351 1.01355 1.0136 1.01364 1.01368 1.0137 1.0137 1.01368 1.01362 1.01353 1.0134 1.01323 1.01301 1.01275 1.01245 1.01211 1.01173 1.0113 1.01085 1.01035 1.00982 1.00927 1.00867 1.00805 1.0074 1.00673 1.00603 1.0053 1.00455 1.00377 1.00297 1.00215 1.0013 1.00043 0.999539 0.998619 0.997675 0.996706 0.995714 0.994699 0.993665 0.992614 0.991548 0.990471 0.989388 0.988302 0.987218 0.986138 0.985065 0.984003 0.982954 0.981916 0.980891 0.979878 0.978874 0.977876 0.976882 0.975887 0.97489 0.973886 0.972876 0.971857 0.970833 0.969806 0.968779 0.967759 0.96675 0.965759 0.964788 0.963841 0.962919 0.96202 0.961141 0.960279 0.959427 0.958581 0.957735 0.956887 0.956036 0.95518 0.954324 0.95347 0.952625 0.951792 0.950976 0.950182 0.949411 0.948664 0.947942 0.947243 0.946565 0.945907 0.945266 0.944642 0.944033 0.943437 0.942853 0.94228 0.941717 0.941164 0.940621 0.940087 0.939562 0.939046 0.938539 0.938041 0.937552 0.937074 0.936605 0.936605 
1.01447 1.01468 1.01466 1.01461 1.01455 1.01447 1.01438 1.01428 1.01417 1.01407 1.01397 1.01388 1.01381 1.01375 1.01371 1.01369 1.01369 1.01371 1.01374 1.01378 1.01382 1.01387 1.0139 1.01392 1.01391 1.01388 1.01382 1.01371 1.01357 1.01338 1.01315 1.01288 1.01256 1.0122 1.0118 1.01136 1.01089 1.01038 1.00984 1.00926 1.00866 1.00802 1.00736 1.00667 1.00595 1.00521 1.00444 1.00365 1.00283 1.00199 1.00112 1.00023 0.999314 0.998372 0.997407 0.996418 0.995408 0.994377 0.993329 0.992267 0.991193 0.990113 0.989029 0.987946 0.986867 0.985796 0.984736 0.983688 0.982654 0.981635 0.98063 0.979638 0.978656 0.977682 0.976713 0.975744 0.974773 0.973797 0.972814 0.971823 0.970826 0.969825 0.968824 0.967828 0.966843 0.965873 0.964923 0.963997 0.963095 0.962216 0.961358 0.960517 0.959686 0.958862 0.958039 0.957214 0.956385 0.955552 0.954717 0.953884 0.953057 0.952242 0.951442 0.950662 0.949904 0.949168 0.948455 0.947765 0.947095 0.946445 0.945812 0.945195 0.944593 0.944005 0.94343 0.942866 0.942313 0.94177 0.941237 0.940714 0.940199 0.939694 0.939198 0.938711 0.938232 0.937763 0.937303 0.937303 
1.0149 1.01512 1.01508 1.01503 1.01495 1.01486 1.01475 1.01463 1.01451 1.01439 1.01428 1.01418 1.01409 1.01403 1.01398 1.01395 1.01395 1.01396 1.01399 1.01403 1.01407 1.01411 1.01414 1.01415 1.01414 1.0141 1.01402 1.01391 1.01375 1.01355 1.0133 1.01301 1.01268 1.0123 1.01189 1.01143 1.01094 1.01042 1.00986 1.00928 1.00866 1.00801 1.00733 1.00663 1.00589 1.00513 1.00435 1.00354 1.0027 1.00184 1.00095 1.00003 0.999094 0.998131 0.997143 0.996134 0.995104 0.994057 0.992995 0.991922 0.99084 0.989755 0.98867 0.987588 0.986514 0.98545 0.9844 0.983364 0.982344 0.981341 0.980353 0.979379 0.978417 0.977464 0.976517 0.975572 0.974626 0.973675 0.972718 0.971755 0.970785 0.969811 0.968837 0.967866 0.966906 0.96596 0.965034 0.96413 0.963251 0.962395 0.961559 0.960741 0.959935 0.959135 0.958337 0.957537 0.956733 0.955924 0.955113 0.954302 0.953497 0.952701 0.951919 0.951155 0.950411 0.949688 0.948986 0.948305 0.947644 0.947002 0.946376 0.945767 0.945173 0.944593 0.944026 0.943471 0.942927 0.942393 0.94187 0.941357 0.940852 0.940357 0.939871 0.939393 0.938924 0.938464 0.938012 0.938012 
1.01531 1.01554 1.0155 1.01544 1.01535 1.01524 1.01512 1.01499 1.01486 1.01473 1.0146 1.01449 1.0144 1.01432 1.01427 1.01424 1.01423 1.01424 1.01426 1.0143 1.01433 1.01437 1.01439 1.0144 1.01438 1.01433 1.01424 1.01411 1.01394 1.01372 1.01346 1.01315 1.0128 1.01241 1.01198 1.01152 1.01101 1.01048 1.00991 1.0093 1.00867 1.00801 1.00732 1.0066 1.00585 1.00507 1.00427 1.00344 1.00258 1.00169 1.00078 0.999844 0.998881 0.997894 0.996884 0.995854 0.994805 0.993741 0.992665 0.99158 0.99049 0.9894 0.988312 0.987231 0.98616 0.985102 0.984059 0.983033 0.982024 0.981033 0.980059 0.9791 0.978155 0.97722 0.976293 0.975369 0.974446 0.973519 0.972588 0.971651 0.970708 0.969762 0.968815 0.967872 0.966938 0.966018 0.965117 0.964238 0.963383 0.962552 0.961742 0.960949 0.960169 0.959396 0.958625 0.957851 0.957074 0.956292 0.955507 0.954721 0.95394 0.953166 0.952404 0.951658 0.950929 0.95022 0.949531 0.94886 0.948209 0.947575 0.946957 0.946356 0.94577 0.945197 0.944638 0.944091 0.943556 0.943032 0.942518 0.942013 0.941518 0.941032 0.940555 0.940086 0.939625 0.939173 0.938728 0.938728 
1.01571 1.01596 1.01591 1.01584 1.01574 1.01563 1.0155 1.01536 1.01522 1.01508 1.01494 1.01482 1.01472 1.01464 1.01458 1.01454 1.01453 1.01453 1.01455 1.01458 1.01461 1.01464 1.01466 1.01466 1.01462 1.01456 1.01446 1.01432 1.01413 1.0139 1.01363 1.01331 1.01294 1.01254 1.01209 1.01161 1.0111 1.01055 1.00996 1.00935 1.0087 1.00802 1.00732 1.00658 1.00582 1.00502 1.0042 1.00335 1.00247 1.00156 1.00062 0.999662 0.998676 0.997664 0.996632 0.995581 0.994512 0.993431 0.992341 0.991244 0.990145 0.98905 0.987958 0.986877 0.985807 0.984752 0.983714 0.982694 0.981694 0.980712 0.979748 0.978802 0.97787 0.97695 0.97604 0.975135 0.974232 0.973329 0.972422 0.97151 0.970595 0.969675 0.968757 0.967842 0.966936 0.966044 0.96517 0.964318 0.963491 0.962686 0.961903 0.961138 0.960386 0.959641 0.958898 0.958154 0.957406 0.956653 0.955896 0.955137 0.954381 0.95363 0.95289 0.952164 0.951453 0.95076 0.950084 0.949425 0.948784 0.948159 0.947551 0.946957 0.946379 0.945814 0.945263 0.944724 0.944198 0.943682 0.943176 0.942681 0.942194 0.941717 0.941248 0.940786 0.940333 0.939887 0.939448 0.939448 
1.0161 1.01636 1.01631 1.01623 1.01613 1.01601 1.01587 1.01573 1.01558 1.01543 1.01529 1.01517 1.01506 1.01497 1.01491 1.01487 1.01485 1.01485 1.01486 1.01489 1.01491 1.01493 1.01494 1.01493 1.01488 1.01481 1.01469 1.01454 1.01434 1.01409 1.0138 1.01347 1.01309 1.01267 1.01222 1.01172 1.01119 1.01063 1.01003 1.00941 1.00875 1.00806 1.00733 1.00658 1.0058 1.00499 1.00414 1.00327 1.00237 1.00144 1.00047 0.99949 0.998478 0.997443 0.996389 0.995315 0.994228 0.993131 0.992025 0.990916 0.989812 0.988707 0.987611 0.986528 0.985456 0.984401 0.983367 0.98235 0.981353 0.980379 0.97942 0.978482 0.977561 0.976653 0.975756 0.974869 0.973984 0.973102 0.972219 0.971331 0.970442 0.969551 0.968661 0.967775 0.966898 0.966035 0.965191 0.964368 0.963569 0.962794 0.96204 0.961304 0.960581 0.959867 0.959155 0.958441 0.957724 0.957001 0.956273 0.955544 0.954814 0.95409 0.953374 0.952669 0.951977 0.951301 0.95064 0.949995 0.949365 0.948751 0.948152 0.947567 0.946997 0.946441 0.945897 0.945367 0.944848 0.944341 0.943843 0.943356 0.942877 0.942407 0.941945 0.941491 0.941043 0.940602 0.940168 0.940168 
1.01647 1.01674 1.01669 1.01661 1.01651 1.01639 1.01625 1.0161 1.01595 1.0158 1.01566 1.01553 1.01542 1.01532 1.01525 1.01521 1.01518 1.01518 1.01519 1.01521 1.01522 1.01524 1.01523 1.01521 1.01515 1.01506 1.01494 1.01477 1.01455 1.01429 1.01399 1.01364 1.01325 1.01282 1.01235 1.01185 1.0113 1.01073 1.01012 1.00948 1.00881 1.0081 1.00736 1.00659 1.00579 1.00496 1.0041 1.0032 1.00228 1.00132 1.00034 0.999327 0.99829 0.997234 0.996156 0.995061 0.993958 0.992842 0.99172 0.990604 0.989489 0.988372 0.987276 0.986186 0.98511 0.984052 0.983016 0.982004 0.981003 0.98003 0.97908 0.978143 0.977227 0.976331 0.975444 0.974569 0.973704 0.972838 0.971977 0.971115 0.970251 0.969388 0.968526 0.96767 0.966824 0.965991 0.965178 0.964386 0.963617 0.962872 0.962149 0.961444 0.960753 0.96007 0.95939 0.958709 0.958023 0.957332 0.956636 0.955936 0.955236 0.954539 0.953848 0.953166 0.952495 0.951837 0.951193 0.950563 0.949946 0.949344 0.948755 0.94818 0.947619 0.947071 0.946536 0.946014 0.945503 0.945004 0.944515 0.944035 0.943563 0.9431 0.942644 0.942195 0.941752 0.941315 0.940884 0.940884 
1.01683 1.01711 1.01706 1.01698 1.01688 1.01676 1.01662 1.01647 1.01632 1.01617 1.01603 1.0159 1.01579 1.01569 1.01562 1.01557 1.01554 1.01553 1.01553 1.01554 1.01555 1.01555 1.01554 1.0155 1.01543 1.01533 1.01518 1.015 1.01477 1.0145 1.01418 1.01382 1.01342 1.01298 1.0125 1.01198 1.01143 1.01084 1.01022 1.00957 1.00888 1.00816 1.00741 1.00662 1.0058 1.00495 1.00406 1.00315 1.0022 1.00122 1.00021 0.999176 0.998118 0.997041 0.995936 0.994827 0.993702 0.992566 0.991436 0.99031 0.989173 0.98806 0.986957 0.985848 0.984771 0.983713 0.982662 0.981648 0.980654 0.97967 0.978721 0.977788 0.97687 0.975978 0.975105 0.974237 0.973387 0.972541 0.971697 0.97086 0.97002 0.969185 0.968353 0.967526 0.966712 0.965911 0.965129 0.964369 0.963633 0.96292 0.962229 0.961557 0.960898 0.960248 0.959601 0.958953 0.9583 0.957642 0.956978 0.95631 0.95564 0.954971 0.954307 0.95365 0.953001 0.952364 0.951738 0.951123 0.950521 0.949931 0.949354 0.94879 0.948239 0.9477 0.947174 0.946661 0.946158 0.945667 0.945185 0.944712 0.944247 0.94379 0.943339 0.942894 0.942455 0.94202 0.94159 0.94159 