# vtk DataFile Version 3.0
LBM simulation at step 140
ASCII
DATASET STRUCTURED_POINTS
DIMENSIONS 256 256 1
ORIGIN 0 0 0
SPACING 1 1 1
POINT_DATA 65536
SCALARS density float
LOOKUP_TABLE default
0.740886 1.08714 1.13382 1.09161 1.08342 1.09225 1.09403 1.09222 1.09163 1.09178 1.09173 1.09154 1.0914 1.09129 1.09118 1.09108 1.09097 1.09088 1.09078 1.0907 1.09062 1.09054 1.09046 1.0904 1.09033 1.09026 1.0902 1.09014 1.09007 1.09002 1.08996 1.0899 1.08985 1.08979 1.08974 1.08968 1.08963 1.08958 1.08952 1.08947 1.08941 1.08936 1.0893 1.08925 1.08919 1.08914 1.08908 1.08902 1.08896 1.0889 1.08883 1.08877 1.0887 1.08863 1.08856 1.08848 1.0884 1.08832 1.08824 1.08815 1.08805 1.08795 1.08784 1.08772 1.0876 1.08746 1.08733 1.0872 1.08707 1.08694 1.08679 1.08658 1.08622 1.08555 1.08435 1.08232 1.07912 1.07447 1.06818 1.06035 1.05133 1.04176 1.03241 1.02397 1.01691 1.0114 1.00736 1.00457 1.00273 1.00157 1.00087 1.00047 1.00024 1.00012 1.00006 1.00003 1.00001 1.00001 1 1 1 1 1 1 1 1 1 1 1 1 1 1 1 1 1 1 1 1 1 1 1 1 1 1 1 1 1 1 1 1 1 1 1 1 1 1 1 1 1 1 1 1 1 1 1 1 1 1 1 1 1 1 1 1 1 1 1 1 1 0.999999 0.999999 0.999997 0.999994 0.999988 0.999976 0.999956 0.999921 0.999863 0.999772 0.999631 0.999423 0.999127 0.998722 0.998185 0.997499 0.996651 0.995638 0.994463 0.993141 0.991694 0.990152 0.988546 0.986912 0.98528 0.983677 0.982126 0.98064 0.979227 0.977889 0.976621 0.975417 0.974269 0.973165 0.972099 0.971061 0.970047 0.969051 0.968071 0.967102 0.966145 0.965197 0.964257 0.963324 0.962397 0.961476 0.960559 0.959645 0.958734 0.957824 0.956915 0.956007 0.955098 0.954187 0.953274 0.952359 0.95144 0.950516 0.949587 0.948652 0.94771 0.94676 0.945801 0.944831 0.943851 0.942859 0.941852 0.94083 0.939792 0.938734 0.937656 0.936555 0.935428 0.934273 0.933085 0.931862 0.930598 0.929289 0.927928 0.926507 0.925018 0.92345 0.921789 0.920018 0.918114 0.916049 0.913792 0.911291 0.908431 0.905119 0.901452 0.897009 0.889729 0.880396 0.875823 0.853624 0.6964 
1.1302 1.06357 1.05863 1.09375 1.0972 1.09172 1.09085 1.09198 1.09209 1.09173 1.09155 1.09147 1.09137 1.09125 1.09114 1.09104 1.09094 1.09085 1.09076 1.09068 1.09059 1.09052 1.09044 1.09038 1.0903 1.09024 1.09017 1.09012 1.09005 1.08999 1.08993 1.08988 1.08982 1.08977 1.08971 1.08966 1.0896 1.08955 1.08949 1.08944 1.08938 1.08932 1.08927 1.08921 1.08915 1.0891 1.08904 1.08897 1.08891 1.08885 1.08878 1.08871 1.08864 1.08857 1.0885 1.08842 1.08833 1.08825 1.08816 1.08806 1.08796 1.08785 1.08773 1.08761 1.08747 1.08733 1.08719 1.08703 1.08687 1.0867 1.08649 1.08618 1.08569 1.08487 1.08351 1.08138 1.07821 1.07376 1.06788 1.06059 1.05215 1.04305 1.03395 1.02553 1.01831 1.01254 1.00822 1.00517 1.00313 1.00182 1.00103 1.00056 1.00029 1.00015 1.00007 1.00003 1.00002 1.00001 1 1 1 1 1 1 1 1 1 1 1 1 1 1 1 1 1 1 1 1 1 1 1 1 1 1 1 1 1 1 1 1 1 1 1 1 1 1 1 1 1 1 1 1 1 1 1 1 1 1 1 1 1 1 1 1 1 1 1 1 1 0.999999 0.999998 0.999996 0.999993 0.999985 0.999972 0.999949 0.999909 0.999845 0.999744 0.99959 0.999367 0.999052 0.998626 0.998068 0.997362 0.996497 0.995472 0.994292 0.992972 0.991534 0.990006 0.98842 0.986808 0.985199 0.983618 0.982086 0.980616 0.979215 0.977884 0.97662 0.975418 0.974268 0.973163 0.972094 0.971054 0.970037 0.96904 0.968057 0.967088 0.966129 0.96518 0.964239 0.963305 0.962378 0.961455 0.960537 0.959622 0.95871 0.957799 0.956889 0.955979 0.955069 0.954157 0.953243 0.952325 0.951404 0.950479 0.949548 0.948611 0.947667 0.946714 0.945753 0.944781 0.943798 0.942802 0.941792 0.940767 0.939724 0.938662 0.937579 0.936472 0.93534 0.934177 0.932982 0.93175 0.930477 0.929157 0.927783 0.926347 0.924841 0.923252 0.921567 0.919766 0.917829 0.915723 0.9134 0.910815 0.907933 0.904582 0.90032 0.895291 0.890488 0.882408 0.859241 0.836176 0.836176 
1.13943 1.0677 1.07651 1.09608 1.09302 1.09047 1.09153 1.09212 1.09179 1.09156 1.0915 1.09142 1.0913 1.0912 1.09109 1.09101 1.0909 1.09082 1.09073 1.09065 1.09056 1.0905 1.09041 1.09035 1.09027 1.09022 1.09014 1.09009 1.09002 1.08997 1.0899 1.08985 1.08979 1.08974 1.08968 1.08962 1.08957 1.08951 1.08945 1.0894 1.08934 1.08929 1.08923 1.08917 1.08911 1.08905 1.08899 1.08893 1.08886 1.08879 1.08873 1.08866 1.08858 1.08851 1.08843 1.08834 1.08826 1.08817 1.08807 1.08797 1.08786 1.08774 1.08761 1.08748 1.08733 1.08718 1.08701 1.08683 1.08664 1.08641 1.08613 1.08574 1.08515 1.08423 1.08281 1.08067 1.07761 1.0734 1.0679 1.06107 1.05307 1.0443 1.03536 1.02692 1.01952 1.01351 1.00894 1.00568 1.00346 1.00203 1.00115 1.00063 1.00033 1.00017 1.00008 1.00004 1.00002 1.00001 1 1 1 1 1 1 1 1 1 1 1 1 1 1 1 1 1 1 1 1 1 1 1 1 1 1 1 1 1 1 1 1 1 1 1 1 1 1 1 1 1 1 1 1 1 1 1 1 1 1 1 1 1 1 1 1 1 1 1 1 1 0.999999 0.999998 0.999996 0.999992 0.999984 0.999969 0.999944 0.999901 0.999831 0.999723 0.99956 0.999325 0.998996 0.998553 0.997978 0.997255 0.996376 0.995339 0.994152 0.992831 0.991398 0.98988 0.988309 0.986714 0.985124 0.983562 0.982047 0.980592 0.979203 0.977882 0.976624 0.975425 0.974277 0.973171 0.972101 0.971059 0.970041 0.969042 0.968058 0.967087 0.966127 0.965177 0.964235 0.9633 0.962371 0.961448 0.960529 0.959613 0.9587 0.957788 0.956877 0.955966 0.955055 0.954141 0.953226 0.952308 0.951386 0.950459 0.949527 0.948588 0.947642 0.946688 0.945725 0.944752 0.943767 0.942769 0.941757 0.940729 0.939684 0.93862 0.937534 0.936424 0.935288 0.934122 0.932924 0.931688 0.93041 0.929085 0.927706 0.926265 0.924753 0.923159 0.921468 0.919661 0.917717 0.915611 0.913302 0.910715 0.907804 0.904601 0.900793 0.895613 0.889981 0.886102 0.876581 0.860274 0.860274 
1.0562 1.09206 1.10489 1.08728 1.08714 1.09248 1.09262 1.09143 1.09135 1.09155 1.09147 1.09132 1.09121 1.09114 1.09104 1.09096 1.09086 1.09079 1.09069 1.09062 1.09053 1.09047 1.09038 1.09032 1.09024 1.09019 1.09011 1.09006 1.08999 1.08994 1.08987 1.08982 1.08975 1.0897 1.08964 1.08959 1.08953 1.08948 1.08942 1.08936 1.0893 1.08925 1.08918 1.08913 1.08906 1.089 1.08894 1.08887 1.08881 1.08874 1.08867 1.08859 1.08852 1.08844 1.08835 1.08827 1.08817 1.08808 1.08798 1.08787 1.08775 1.08762 1.08749 1.08734 1.08718 1.08701 1.08683 1.08663 1.0864 1.08614 1.0858 1.08535 1.08469 1.08371 1.08225 1.08013 1.07716 1.07315 1.06794 1.06149 1.05388 1.04542 1.03665 1.0282 1.02067 1.01445 1.00964 1.00617 1.00379 1.00224 1.00128 1.0007 1.00037 1.00019 1.00009 1.00004 1.00002 1.00001 1 1 1 1 1 1 1 1 1 1 1 1 1 1 1 1 1 1 1 1 1 1 1 1 1 1 1 1 1 1 1 1 1 1 1 1 1 1 1 1 1 1 1 1 1 1 1 1 1 1 1 1 1 1 1 1 1 1 1 1 1 0.999999 0.999998 0.999995 0.999991 0.999982 0.999967 0.999939 0.999894 0.99982 0.999706 0.999535 0.99929 0.998949 0.998494 0.997905 0.997169 0.996278 0.995234 0.994043 0.992722 0.991293 0.989785 0.988226 0.986645 0.985071 0.983524 0.982024 0.980581 0.979202 0.977887 0.976635 0.975439 0.974292 0.973187 0.972116 0.971074 0.970055 0.969054 0.968069 0.967097 0.966136 0.965185 0.964243 0.963307 0.962378 0.961454 0.960534 0.959617 0.958703 0.95779 0.956879 0.955967 0.955055 0.954141 0.953225 0.952305 0.951382 0.950455 0.949522 0.948582 0.947636 0.946681 0.945717 0.944743 0.943757 0.942758 0.941745 0.940717 0.939671 0.938606 0.937519 0.936409 0.935272 0.934107 0.932908 0.931672 0.930396 0.929072 0.927696 0.926258 0.924752 0.923164 0.921484 0.919694 0.917772 0.915691 0.913432 0.910958 0.908144 0.904905 0.901526 0.897801 0.891853 0.884818 0.881928 0.878422 0.878422 
1.09571 1.0955 1.08794 1.08801 1.09303 1.09207 1.09088 1.09128 1.0916 1.09144 1.09127 1.09122 1.09115 1.09107 1.09097 1.0909 1.09081 1.09074 1.09064 1.09058 1.09049 1.09043 1.09034 1.09029 1.0902 1.09016 1.09007 1.09003 1.08995 1.08991 1.08983 1.08979 1.08972 1.08967 1.0896 1.08955 1.08949 1.08944 1.08938 1.08932 1.08926 1.0892 1.08914 1.08908 1.08902 1.08895 1.08889 1.08882 1.08875 1.08868 1.08861 1.08853 1.08845 1.08837 1.08828 1.08819 1.08809 1.08799 1.08788 1.08777 1.08764 1.08751 1.08737 1.08721 1.08704 1.08686 1.08666 1.08644 1.08619 1.08589 1.08551 1.08499 1.08427 1.08323 1.08173 1.07962 1.07674 1.07291 1.06799 1.0619 1.05465 1.0465 1.03789 1.02944 1.02179 1.01535 1.01033 1.00665 1.00411 1.00244 1.0014 1.00077 1.00041 1.00021 1.0001 1.00005 1.00002 1.00001 1 1 1 1 1 1 1 1 1 1 1 1 1 1 1 1 1 1 1 1 1 1 1 1 1 1 1 1 1 1 1 1 1 1 1 1 1 1 1 1 1 1 1 1 1 1 1 1 1 1 1 1 1 1 1 1 1 1 1 1 1 0.999999 0.999998 0.999995 0.99999 0.999981 0.999965 0.999936 0.999888 0.999811 0.999692 0.999515 0.999262 0.998912 0.998446 0.997846 0.9971 0.996201 0.99515 0.993956 0.992637 0.991214 0.989715 0.988168 0.986601 0.98504 0.983507 0.982019 0.980587 0.979216 0.977907 0.976659 0.975465 0.974319 0.973213 0.972142 0.971099 0.970078 0.969077 0.968091 0.967118 0.966157 0.965205 0.964262 0.963326 0.962396 0.961471 0.960551 0.959633 0.958719 0.957806 0.956893 0.955981 0.955068 0.954154 0.953237 0.952318 0.951394 0.950466 0.949533 0.948593 0.947646 0.946691 0.945727 0.944752 0.943767 0.942768 0.941756 0.940728 0.939682 0.938618 0.937533 0.936424 0.93529 0.934127 0.932932 0.9317 0.930429 0.929112 0.927745 0.926319 0.924826 0.923258 0.921601 0.919843 0.917968 0.91595 0.913755 0.911382 0.90882 0.905881 0.902477 0.899238 0.895911 0.8907 0.886319 0.884024 0.884024 
1.09762 1.09077 1.08881 1.09342 1.09193 1.09023 1.09121 1.09164 1.09132 1.09116 1.09118 1.09115 1.09106 1.09099 1.0909 1.09084 1.09075 1.09069 1.09059 1.09054 1.09044 1.09039 1.0903 1.09025 1.09016 1.09012 1.09003 1.09 1.08991 1.08987 1.08979 1.08975 1.08968 1.08963 1.08956 1.08952 1.08945 1.0894 1.08933 1.08928 1.08922 1.08916 1.08909 1.08903 1.08897 1.0889 1.08884 1.08877 1.0887 1.08862 1.08855 1.08847 1.08838 1.0883 1.08821 1.08811 1.08801 1.08791 1.08779 1.08767 1.08754 1.0874 1.08725 1.08709 1.08691 1.08671 1.0865 1.08625 1.08597 1.08564 1.08521 1.08464 1.08386 1.08276 1.08123 1.07915 1.07635 1.07271 1.06806 1.06231 1.05541 1.04754 1.03909 1.03065 1.02287 1.01624 1.011 1.00712 1.00442 1.00264 1.00151 1.00084 1.00045 1.00023 1.00011 1.00005 1.00003 1.00001 1 1 1 1 1 1 1 1 1 1 1 1 1 1 1 1 1 1 1 1 1 1 1 1 1 1 1 1 1 1 1 1 1 1 1 1 1 1 1 1 1 1 1 1 1 1 1 1 1 1 1 1 1 1 1 1 1 1 1 1 1 0.999999 0.999998 0.999995 0.99999 0.99998 0.999963 0.999933 0.999883 0.999804 0.999681 0.9995 0.99924 0.998883 0.998409 0.997801 0.997047 0.996141 0.995087 0.993892 0.992575 0.991159 0.989668 0.988132 0.986578 0.98503 0.98351 0.982033 0.98061 0.979246 0.977942 0.976697 0.975504 0.974358 0.973253 0.97218 0.971136 0.970114 0.969111 0.968125 0.967151 0.966189 0.965236 0.964292 0.963356 0.962425 0.9615 0.960579 0.959661 0.958746 0.957833 0.95692 0.956008 0.955094 0.95418 0.953263 0.952343 0.95142 0.950492 0.949558 0.948619 0.947672 0.946717 0.945754 0.94478 0.943795 0.942797 0.941786 0.94076 0.939716 0.938654 0.937572 0.936467 0.935336 0.934178 0.932989 0.931765 0.930503 0.929197 0.927843 0.926434 0.924963 0.923421 0.921799 0.920083 0.91826 0.916322 0.914239 0.911966 0.909531 0.90699 0.904069 0.900646 0.897609 0.894666 0.891273 0.888691 0.888691 
1.08884 1.09129 1.09275 1.09158 1.09027 1.09135 1.09158 1.0911 1.09105 1.09116 1.09111 1.09102 1.09095 1.09091 1.09083 1.09077 1.09068 1.09063 1.09053 1.09049 1.09039 1.09035 1.09025 1.09021 1.09012 1.09008 1.08999 1.08996 1.08987 1.08984 1.08975 1.08972 1.08964 1.0896 1.08952 1.08948 1.08941 1.08936 1.08929 1.08924 1.08917 1.08911 1.08905 1.08899 1.08892 1.08885 1.08878 1.08871 1.08864 1.08856 1.08848 1.0884 1.08832 1.08823 1.08813 1.08804 1.08793 1.08782 1.0877 1.08758 1.08744 1.08729 1.08713 1.08696 1.08677 1.08656 1.08633 1.08606 1.08575 1.08538 1.08491 1.08429 1.08345 1.08231 1.08077 1.07871 1.07601 1.07255 1.06816 1.06272 1.05615 1.04855 1.04025 1.03183 1.02393 1.01711 1.01165 1.00758 1.00472 1.00283 1.00163 1.0009 1.00048 1.00025 1.00012 1.00006 1.00003 1.00001 1.00001 1 1 1 1 1 1 1 1 1 1 1 1 1 1 1 1 1 1 1 1 1 1 1 1 1 1 1 1 1 1 1 1 1 1 1 1 1 1 1 1 1 1 1 1 1 1 1 1 1 1 1 1 1 1 1 1 1 1 1 0.999999 0.999999 0.999998 0.999995 0.99999 0.99998 0.999962 0.999931 0.99988 0.999799 0.999674 0.999489 0.999225 0.998863 0.998383 0.997769 0.99701 0.9961 0.995044 0.99385 0.992536 0.991126 0.989644 0.988118 0.986575 0.985039 0.98353 0.982063 0.980648 0.979291 0.977991 0.976749 0.975557 0.974411 0.973305 0.972231 0.971185 0.970162 0.969158 0.96817 0.967196 0.966233 0.965279 0.964335 0.963397 0.962466 0.961541 0.960619 0.959701 0.958785 0.957872 0.956959 0.956046 0.955133 0.954218 0.953301 0.952381 0.951458 0.95053 0.949597 0.948658 0.947712 0.946758 0.945795 0.944822 0.943839 0.942843 0.941834 0.94081 0.939769 0.938711 0.937632 0.936532 0.935407 0.934256 0.933074 0.93186 0.930609 0.929318 0.92798 0.926592 0.925146 0.923635 0.922052 0.920387 0.918627 0.91676 0.914787 0.912681 0.910385 0.907968 0.905533 0.902787 0.899827 0.897167 0.894498 0.892114 0.892114 
1.09121 1.09148 1.09139 1.09071 1.0913 1.09147 1.09095 1.09097 1.09112 1.09104 1.09094 1.09091 1.09087 1.09082 1.09074 1.09069 1.09061 1.09056 1.09047 1.09043 1.09033 1.0903 1.0902 1.09017 1.09007 1.09004 1.08995 1.08992 1.08983 1.0898 1.08971 1.08968 1.0896 1.08956 1.08948 1.08944 1.08936 1.08932 1.08925 1.08919 1.08913 1.08907 1.089 1.08894 1.08887 1.0888 1.08873 1.08866 1.08858 1.08851 1.08842 1.08834 1.08825 1.08816 1.08806 1.08796 1.08785 1.08774 1.08761 1.08748 1.08734 1.08718 1.08701 1.08683 1.08663 1.08641 1.08615 1.08587 1.08553 1.08512 1.08461 1.08394 1.08306 1.08189 1.08034 1.07831 1.07571 1.07242 1.06829 1.06315 1.05688 1.04954 1.04139 1.03297 1.02497 1.01796 1.0123 1.00803 1.00502 1.00301 1.00174 1.00097 1.00052 1.00027 1.00013 1.00006 1.00003 1.00001 1.00001 1 1 1 1 1 1 1 1 1 1 1 1 1 1 1 1 1 1 1 1 1 1 1 1 1 1 1 1 1 1 1 1 1 1 1 1 1 1 1 1 1 1 1 1 1 1 1 1 1 1 1 1 1 1 1 1 1 1 1 0.999999 0.999999 0.999997 0.999995 0.999989 0.999979 0.999961 0.99993 0.999879 0.999796 0.99967 0.999483 0.999216 0.998851 0.998368 0.997751 0.996989 0.996078 0.995021 0.993829 0.992519 0.991115 0.989641 0.988125 0.986593 0.985068 0.983568 0.98211 0.980702 0.97935 0.978054 0.976813 0.975623 0.974477 0.973369 0.972295 0.971247 0.970223 0.969217 0.968228 0.967252 0.966288 0.965334 0.964389 0.963451 0.962519 0.961593 0.960671 0.959752 0.958836 0.957922 0.957009 0.956096 0.955182 0.954268 0.953351 0.952431 0.951508 0.950581 0.949648 0.94871 0.947765 0.946812 0.945851 0.944879 0.943898 0.942904 0.941897 0.940876 0.939839 0.938785 0.937711 0.936617 0.935499 0.934355 0.933183 0.93198 0.930742 0.929466 0.928148 0.926782 0.925364 0.923888 0.922345 0.920731 0.919038 0.917251 0.915362 0.913388 0.911302 0.909043 0.906715 0.904395 0.901919 0.899442 0.897115 0.894975 0.894975 
1.09178 1.09108 1.09088 1.09115 1.09129 1.09091 1.09093 1.09107 1.09095 1.09087 1.09086 1.09084 1.09077 1.09072 1.09066 1.09062 1.09054 1.0905 1.09041 1.09037 1.09028 1.09024 1.09015 1.09012 1.09002 1.09 1.0899 1.08987 1.08978 1.08975 1.08967 1.08963 1.08955 1.08951 1.08944 1.08939 1.08932 1.08927 1.0892 1.08915 1.08908 1.08902 1.08895 1.08889 1.08882 1.08875 1.08868 1.0886 1.08852 1.08845 1.08836 1.08827 1.08818 1.08809 1.08799 1.08788 1.08777 1.08765 1.08752 1.08738 1.08723 1.08707 1.08689 1.0867 1.08649 1.08625 1.08598 1.08567 1.08531 1.08487 1.08431 1.08361 1.08269 1.08149 1.07994 1.07795 1.07545 1.07233 1.06843 1.06357 1.05761 1.0505 1.04249 1.03409 1.02598 1.0188 1.01292 1.00847 1.00531 1.00319 1.00185 1.00103 1.00055 1.00029 1.00014 1.00007 1.00003 1.00001 1.00001 1 1 1 1 1 1 1 1 1 1 1 1 1 1 1 1 1 1 1 1 1 1 1 1 1 1 1 1 1 1 1 1 1 1 1 1 1 1 1 1 1 1 1 1 1 1 1 1 1 1 1 1 1 1 1 1 1 1 1 0.999999 0.999999 0.999997 0.999995 0.999989 0.999979 0.999961 0.99993 0.999878 0.999796 0.999669 0.999481 0.999214 0.998848 0.998363 0.997745 0.996983 0.996073 0.995018 0.993829 0.992524 0.991127 0.989661 0.988154 0.986631 0.985115 0.983624 0.982173 0.980771 0.979424 0.978131 0.976892 0.975701 0.974555 0.973446 0.97237 0.971321 0.970295 0.969288 0.968298 0.967321 0.966355 0.9654 0.964454 0.963515 0.962583 0.961656 0.960734 0.959815 0.958898 0.957984 0.95707 0.956157 0.955244 0.954329 0.953413 0.952493 0.951571 0.950644 0.949712 0.948775 0.947831 0.946879 0.945919 0.94495 0.94397 0.942979 0.941975 0.940958 0.939925 0.938875 0.937807 0.936719 0.935608 0.934473 0.933311 0.93212 0.930897 0.929638 0.928339 0.926998 0.925608 0.924166 0.922666 0.921102 0.919469 0.917764 0.915972 0.91409 0.912145 0.910115 0.907966 0.905797 0.903622 0.901409 0.899273 0.897313 0.897313 
1.09085 1.091 1.09106 1.09106 1.0909 1.09088 1.09098 1.09088 1.0908 1.09081 1.09078 1.09073 1.09067 1.09064 1.09058 1.09054 1.09046 1.09043 1.09034 1.09031 1.09022 1.09019 1.09009 1.09007 1.08997 1.08995 1.08985 1.08983 1.08974 1.08971 1.08962 1.08959 1.08951 1.08947 1.08939 1.08935 1.08928 1.08923 1.08916 1.0891 1.08903 1.08897 1.0889 1.08884 1.08877 1.0887 1.08862 1.08855 1.08846 1.08838 1.0883 1.08821 1.08811 1.08801 1.08791 1.0878 1.08768 1.08756 1.08742 1.08728 1.08712 1.08695 1.08677 1.08656 1.08634 1.08609 1.0858 1.08547 1.08508 1.08461 1.08402 1.08328 1.08233 1.08111 1.07956 1.07763 1.07523 1.07227 1.0686 1.06401 1.05832 1.05145 1.04357 1.03519 1.02697 1.01961 1.01354 1.0089 1.00559 1.00337 1.00195 1.00109 1.00058 1.0003 1.00015 1.00007 1.00003 1.00001 1.00001 1 1 1 1 1 1 1 1 1 1 1 1 1 1 1 1 1 1 1 1 1 1 1 1 1 1 1 1 1 1 1 1 1 1 1 1 1 1 1 1 1 1 1 1 1 1 1 1 1 1 1 1 1 1 1 1 1 1 1 0.999999 0.999999 0.999998 0.999995 0.99999 0.99998 0.999962 0.999931 0.999879 0.999797 0.999671 0.999484 0.999217 0.998852 0.998369 0.997753 0.996993 0.996085 0.995034 0.99385 0.992551 0.99116 0.989702 0.988204 0.986689 0.985181 0.983698 0.982253 0.980857 0.979512 0.978222 0.976983 0.975793 0.974645 0.973535 0.972458 0.971407 0.97038 0.969371 0.968379 0.967401 0.966434 0.965478 0.964531 0.963592 0.962659 0.961731 0.960808 0.959888 0.958972 0.958057 0.957143 0.95623 0.955317 0.954402 0.953486 0.952567 0.951645 0.950719 0.949788 0.948851 0.947908 0.946958 0.946 0.945033 0.944056 0.943067 0.942067 0.941053 0.940024 0.93898 0.937917 0.936836 0.935733 0.934608 0.933457 0.932278 0.931069 0.929828 0.92855 0.927232 0.925871 0.924464 0.923005 0.92149 0.919914 0.918277 0.916577 0.914801 0.912953 0.911062 0.909109 0.907099 0.905092 0.903093 0.901127 0.899296 0.899296 
1.09087 1.09092 1.0909 1.09085 1.09082 1.09087 1.09081 1.09075 1.09075 1.09072 1.09066 1.09063 1.09059 1.09056 1.09049 1.09046 1.09039 1.09036 1.09028 1.09025 1.09016 1.09013 1.09004 1.09002 1.08992 1.0899 1.0898 1.08978 1.08969 1.08966 1.08958 1.08955 1.08946 1.08943 1.08935 1.0893 1.08923 1.08918 1.08911 1.08905 1.08898 1.08892 1.08885 1.08878 1.08871 1.08864 1.08856 1.08849 1.0884 1.08832 1.08823 1.08814 1.08804 1.08794 1.08783 1.08772 1.0876 1.08747 1.08733 1.08718 1.08701 1.08684 1.08664 1.08643 1.08619 1.08592 1.08562 1.08527 1.08485 1.08435 1.08374 1.08296 1.08198 1.08075 1.07921 1.07733 1.07504 1.07224 1.06878 1.06445 1.05902 1.05237 1.04463 1.03625 1.02794 1.0204 1.01413 1.00932 1.00587 1.00354 1.00205 1.00114 1.00061 1.00032 1.00016 1.00008 1.00004 1.00002 1.00001 1 1 1 1 1 1 1 1 1 1 1 1 1 1 1 1 1 1 1 1 1 1 1 1 1 1 1 1 1 1 1 1 1 1 1 1 1 1 1 1 1 1 1 1 1 1 1 1 1 1 1 1 1 1 1 1 1 1 1 1 0.999999 0.999998 0.999995 0.99999 0.99998 0.999963 0.999932 0.999882 0.999801 0.999676 0.999491 0.999227 0.998865 0.998385 0.997773 0.997018 0.996115 0.995069 0.993891 0.992599 0.991216 0.989765 0.988275 0.986768 0.985267 0.98379 0.98235 0.980957 0.979616 0.978327 0.977088 0.975897 0.974749 0.973637 0.972558 0.971505 0.970476 0.969466 0.968472 0.967493 0.966525 0.965568 0.96462 0.963679 0.962745 0.961817 0.960893 0.959974 0.959056 0.958141 0.957228 0.956314 0.955401 0.954487 0.95357 0.952652 0.95173 0.950805 0.949875 0.94894 0.947998 0.94705 0.946093 0.945128 0.944154 0.943168 0.942171 0.941161 0.940137 0.939098 0.938042 0.936968 0.935873 0.934757 0.933617 0.932451 0.931258 0.930033 0.928776 0.927482 0.92615 0.924775 0.923354 0.921886 0.920367 0.918792 0.917164 0.915484 0.913744 0.911954 0.910134 0.908277 0.906405 0.904547 0.90272 0.900996 0.900996 
1.09086 1.09078 1.09076 1.09076 1.09076 1.09073 1.09069 1.09068 1.09066 1.09061 1.09058 1.09055 1.0905 1.09047 1.09041 1.09038 1.09032 1.09029 1.09021 1.09018 1.0901 1.09007 1.08998 1.08996 1.08987 1.08985 1.08975 1.08973 1.08964 1.08962 1.08953 1.0895 1.08941 1.08938 1.0893 1.08926 1.08918 1.08913 1.08906 1.089 1.08893 1.08887 1.0888 1.08873 1.08866 1.08858 1.0885 1.08843 1.08834 1.08825 1.08816 1.08807 1.08797 1.08786 1.08775 1.08763 1.08751 1.08737 1.08723 1.08707 1.0869 1.08672 1.08651 1.08629 1.08604 1.08576 1.08544 1.08507 1.08463 1.0841 1.08345 1.08265 1.08165 1.08041 1.07889 1.07706 1.07487 1.07223 1.06899 1.06491 1.05973 1.05329 1.04567 1.0373 1.02889 1.02118 1.01472 1.00972 1.00613 1.0037 1.00215 1.0012 1.00064 1.00033 1.00017 1.00008 1.00004 1.00002 1.00001 1 1 1 1 1 1 1 1 1 1 1 1 1 1 1 1 1 1 1 1 1 1 1 1 1 1 1 1 1 1 1 1 1 1 1 1 1 1 1 1 1 1 1 1 1 1 1 1 1 1 1 1 1 1 1 1 1 1 1 1 0.999999 0.999998 0.999995 0.99999 0.999981 0.999964 0.999934 0.999885 0.999805 0.999683 0.999501 0.999241 0.998884 0.998411 0.997805 0.997056 0.996161 0.995123 0.993953 0.992669 0.991293 0.98985 0.988367 0.986867 0.985372 0.9839 0.982465 0.981075 0.979735 0.978446 0.977207 0.976015 0.974865 0.973752 0.97267 0.971616 0.970585 0.969573 0.968578 0.967596 0.966628 0.965669 0.96472 0.963778 0.962844 0.961915 0.96099 0.96007 0.959152 0.958237 0.957323 0.95641 0.955497 0.954582 0.953667 0.952749 0.951828 0.950903 0.949974 0.94904 0.9481 0.947153 0.946199 0.945236 0.944264 0.943282 0.942288 0.941283 0.940264 0.93923 0.93818 0.937113 0.936027 0.93492 0.933791 0.932638 0.93146 0.930252 0.929015 0.927745 0.926439 0.925096 0.923713 0.922287 0.920818 0.919303 0.91774 0.916134 0.914487 0.912796 0.911075 0.909335 0.907582 0.905835 0.904116 0.902478 0.902478 
1.09068 1.09067 1.09067 1.09066 1.09065 1.09062 1.09061 1.09059 1.09055 1.09053 1.09049 1.09046 1.09042 1.09039 1.09034 1.09031 1.09024 1.09021 1.09014 1.09012 1.09003 1.09001 1.08992 1.0899 1.08981 1.08979 1.0897 1.08968 1.08959 1.08957 1.08948 1.08945 1.08936 1.08933 1.08925 1.08921 1.08913 1.08908 1.08901 1.08895 1.08888 1.08882 1.08874 1.08867 1.0886 1.08852 1.08844 1.08836 1.08828 1.08819 1.08809 1.088 1.08789 1.08779 1.08767 1.08755 1.08742 1.08728 1.08713 1.08696 1.08679 1.08659 1.08638 1.08615 1.08589 1.08559 1.08525 1.08486 1.0844 1.08385 1.08318 1.08235 1.08133 1.08009 1.0786 1.07683 1.07474 1.07226 1.06921 1.06537 1.06043 1.05419 1.04669 1.03832 1.02981 1.02194 1.01528 1.01012 1.00639 1.00386 1.00224 1.00125 1.00067 1.00035 1.00017 1.00008 1.00004 1.00002 1.00001 1 1 1 1 1 1 1 1 1 1 1 1 1 1 1 1 1 1 1 1 1 1 1 1 1 1 1 1 1 1 1 1 1 1 1 1 1 1 1 1 1 1 1 1 1 1 1 1 1 1 1 1 1 1 1 1 1 1 1 1 0.999999 0.999998 0.999995 0.999991 0.999982 0.999965 0.999937 0.999889 0.999812 0.999693 0.999515 0.999261 0.99891 0.998445 0.997848 0.997109 0.996223 0.995195 0.994034 0.992759 0.991391 0.989957 0.98848 0.986986 0.985497 0.984029 0.982596 0.981208 0.979869 0.97858 0.977341 0.976147 0.974995 0.97388 0.972796 0.971739 0.970706 0.969692 0.968695 0.967712 0.966742 0.965782 0.964832 0.963889 0.962954 0.962024 0.961099 0.960178 0.95926 0.958344 0.95743 0.956517 0.955603 0.954689 0.953774 0.952856 0.951936 0.951012 0.950084 0.949152 0.948213 0.947268 0.946316 0.945356 0.944386 0.943408 0.942418 0.941416 0.940402 0.939374 0.93833 0.937271 0.936193 0.935096 0.933978 0.932838 0.931674 0.930484 0.929266 0.928018 0.926738 0.925425 0.924077 0.922691 0.921266 0.919804 0.918302 0.916762 0.915187 0.913582 0.911948 0.910298 0.908641 0.906987 0.905354 0.903786 0.903786 
1.09058 1.09057 1.09057 1.09056 1.09055 1.09053 1.09052 1.09049 1.09046 1.09044 1.0904 1.09038 1.09034 1.09031 1.09026 1.09023 1.09017 1.09014 1.09007 1.09005 1.08997 1.08995 1.08986 1.08985 1.08975 1.08974 1.08965 1.08963 1.08954 1.08951 1.08942 1.0894 1.08931 1.08928 1.0892 1.08916 1.08908 1.08903 1.08895 1.0889 1.08882 1.08876 1.08869 1.08862 1.08854 1.08846 1.08838 1.0883 1.08821 1.08812 1.08802 1.08792 1.08782 1.08771 1.08759 1.08746 1.08733 1.08718 1.08702 1.08686 1.08667 1.08647 1.08625 1.086 1.08573 1.08542 1.08507 1.08466 1.08418 1.0836 1.0829 1.08205 1.08102 1.07978 1.07832 1.07661 1.07463 1.0723 1.06946 1.06584 1.06113 1.05508 1.04769 1.03933 1.03072 1.02268 1.01584 1.0105 1.00663 1.00401 1.00232 1.0013 1.0007 1.00036 1.00018 1.00009 1.00004 1.00002 1.00001 1 1 1 1 1 1 1 1 1 1 1 1 1 1 1 1 1 1 1 1 1 1 1 1 1 1 1 1 1 1 1 1 1 1 1 1 1 1 1 1 1 1 1 1 1 1 1 1 1 1 1 1 1 1 1 1 1 1 1 1 0.999999 0.999998 0.999996 0.999991 0.999983 0.999967 0.99994 0.999894 0.99982 0.999705 0.999532 0.999285 0.998943 0.998487 0.997901 0.997174 0.9963 0.995284 0.994134 0.992869 0.991511 0.990084 0.988615 0.987127 0.985641 0.984177 0.982746 0.981359 0.980019 0.97873 0.977489 0.976293 0.975138 0.97402 0.972934 0.971875 0.970839 0.969823 0.968824 0.96784 0.966868 0.965907 0.964955 0.964012 0.963075 0.962145 0.961219 0.960297 0.959379 0.958463 0.957548 0.956635 0.955722 0.954808 0.953893 0.952976 0.952056 0.951133 0.950206 0.949275 0.948338 0.947395 0.946445 0.945487 0.944521 0.943545 0.942559 0.941562 0.940553 0.93953 0.938493 0.937441 0.936372 0.935284 0.934178 0.93305 0.9319 0.930726 0.929527 0.928301 0.927045 0.92576 0.924444 0.923094 0.921712 0.920295 0.918846 0.917365 0.915854 0.914317 0.912759 0.911185 0.909604 0.908026 0.906464 0.904955 0.904955 
1.09049 1.09047 1.09046 1.09046 1.09045 1.09044 1.09042 1.0904 1.09038 1.09035 1.09032 1.0903 1.09026 1.09023 1.09018 1.09016 1.09009 1.09007 1.09 1.08998 1.0899 1.08989 1.0898 1.08979 1.0897 1.08968 1.08959 1.08957 1.08948 1.08946 1.08937 1.08935 1.08926 1.08923 1.08914 1.0891 1.08902 1.08898 1.0889 1.08884 1.08877 1.0887 1.08863 1.08856 1.08848 1.0884 1.08832 1.08823 1.08814 1.08805 1.08795 1.08785 1.08774 1.08762 1.0875 1.08737 1.08723 1.08708 1.08692 1.08675 1.08655 1.08635 1.08612 1.08586 1.08558 1.08525 1.08488 1.08446 1.08395 1.08336 1.08264 1.08177 1.08073 1.0795 1.07807 1.07643 1.07455 1.07237 1.06972 1.06632 1.06183 1.05596 1.04867 1.04031 1.0316 1.02339 1.01637 1.01086 1.00687 1.00415 1.00241 1.00134 1.00072 1.00037 1.00019 1.00009 1.00004 1.00002 1.00001 1 1 1 1 1 1 1 1 1 1 1 1 1 1 1 1 1 1 1 1 1 1 1 1 1 1 1 1 1 1 1 1 1 1 1 1 1 1 1 1 1 1 1 1 1 1 1 1 1 1 1 1 1 1 1 1 1 1 1 1 0.999999 0.999998 0.999996 0.999992 0.999984 0.999969 0.999943 0.9999 0.999829 0.999718 0.999552 0.999313 0.998981 0.998537 0.997964 0.997251 0.996392 0.995389 0.994253 0.993 0.991652 0.990234 0.988771 0.987288 0.985806 0.984344 0.982914 0.981527 0.980186 0.978895 0.977651 0.976453 0.975296 0.974175 0.973086 0.972024 0.970986 0.969968 0.968966 0.96798 0.967007 0.966044 0.965091 0.964146 0.963209 0.962277 0.96135 0.960428 0.959509 0.958593 0.957678 0.956765 0.955851 0.954938 0.954023 0.953107 0.952188 0.951266 0.95034 0.94941 0.948474 0.947533 0.946585 0.94563 0.944667 0.943695 0.942713 0.94172 0.940716 0.939699 0.938668 0.937623 0.936562 0.935484 0.934388 0.933273 0.932137 0.930979 0.929797 0.928591 0.927359 0.9261 0.924813 0.923497 0.922152 0.920778 0.919374 0.917944 0.916489 0.915011 0.913515 0.912005 0.910489 0.908973 0.907471 0.906011 0.906011 
1.09039 1.09037 1.09037 1.09037 1.09036 1.09035 1.09033 1.09031 1.09029 1.09027 1.09024 1.09021 1.09017 1.09015 1.0901 1.09008 1.09002 1.09 1.08993 1.08992 1.08984 1.08982 1.08974 1.08973 1.08964 1.08962 1.08953 1.08952 1.08943 1.08941 1.08932 1.08929 1.08921 1.08917 1.08909 1.08905 1.08897 1.08892 1.08884 1.08879 1.08871 1.08865 1.08857 1.0885 1.08842 1.08834 1.08825 1.08817 1.08807 1.08798 1.08788 1.08777 1.08766 1.08754 1.08742 1.08728 1.08714 1.08698 1.08681 1.08663 1.08644 1.08622 1.08598 1.08572 1.08542 1.08508 1.0847 1.08425 1.08373 1.08311 1.08238 1.08149 1.08045 1.07923 1.07783 1.07626 1.0745 1.07247 1.07 1.06681 1.06253 1.05683 1.04964 1.04128 1.03247 1.02409 1.01689 1.01122 1.00709 1.00429 1.00248 1.00138 1.00074 1.00038 1.00019 1.00009 1.00004 1.00002 1.00001 1 1 1 1 1 1 1 1 1 1 1 1 1 1 1 1 1 1 1 1 1 1 1 1 1 1 1 1 1 1 1 1 1 1 1 1 1 1 1 1 1 1 1 1 1 1 1 1 1 1 1 1 1 1 1 1 1 1 1 1 0.999999 0.999998 0.999996 0.999992 0.999985 0.999971 0.999947 0.999906 0.999839 0.999733 0.999575 0.999345 0.999024 0.998594 0.998036 0.997339 0.996497 0.995511 0.99439 0.99315 0.991813 0.990404 0.988948 0.98747 0.985992 0.98453 0.983101 0.981712 0.98037 0.979076 0.977829 0.976628 0.975467 0.974343 0.973251 0.972186 0.971145 0.970124 0.969121 0.968133 0.967157 0.966193 0.965239 0.964293 0.963354 0.962421 0.961494 0.960571 0.959651 0.958735 0.95782 0.956906 0.955993 0.955079 0.954165 0.953249 0.952331 0.95141 0.950485 0.949556 0.948623 0.947683 0.946738 0.945785 0.944825 0.943856 0.942878 0.941889 0.94089 0.939879 0.938855 0.937817 0.936764 0.935696 0.93461 0.933507 0.932384 0.931241 0.930076 0.928889 0.927679 0.926444 0.925184 0.923899 0.922587 0.92125 0.919888 0.918503 0.917095 0.915668 0.914224 0.912769 0.911307 0.909845 0.908393 0.906975 0.906975 