# vtk DataFile Version 3.0
LBM simulation at step 290
ASCII
DATASET STRUCTURED_POINTS
DIMENSIONS 128 128 1
ORIGIN 0 0 0
SPACING 1 1 1
POINT_DATA 16384
SCALARS density float
LOOKUP_TABLE default
0.943641 1.00834 1.01011 1.00688 1.00714 1.00738 1.0073 1.00726 1.00728 1.00731 1.00734 1.00739 1.00746 1.00753 1.00761 1.00771 1.00781 1.00792 1.00804 1.00817 1.00829 1.00842 1.00854 1.00866 1.00876 1.00884 1.00891 1.00895 1.00896 1.00893 1.00887 1.00876 1.0086 1.00839 1.00812 1.0078 1.00743 1.007 1.00651 1.00596 1.00537 1.00472 1.00402 1.00328 1.0025 1.00168 1.00083 0.999955 0.999053 0.998131 0.997193 0.996242 0.995281 0.994313 0.99334 0.992364 0.991387 0.990411 0.989435 0.988461 0.98749 0.986522 0.985558 0.984598 0.983642 0.982691 0.981746 0.980806 0.979871 0.978941 0.978014 0.977089 0.976164 0.975234 0.974297 0.973348 0.97238 0.971389 0.970367 0.969308 0.968206 0.967057 0.965856 0.964603 0.963298 0.961947 0.960556 0.959135 0.957697 0.956255 0.954824 0.953418 0.952047 0.950723 0.949452 0.948239 0.947085 0.945988 0.944945 0.943952 0.943002 0.94209 0.94121 0.940356 0.939524 0.938709 0.937908 0.937118 0.936336 0.935561 0.934789 0.934021 0.933253 0.932483 0.931711 0.930932 0.930145 0.929346 0.92853 0.927695 0.926821 0.925888 0.924932 0.924246 0.922138 0.920383 0.936009 0.936009 
1.01092 1.00897 1.00524 1.00654 1.00742 1.00739 1.0073 1.00728 1.00729 1.00731 1.00734 1.00739 1.00745 1.00752 1.0076 1.00769 1.00779 1.0079 1.00801 1.00814 1.00826 1.00838 1.0085 1.00861 1.00871 1.00879 1.00885 1.00888 1.00888 1.00885 1.00878 1.00866 1.0085 1.00828 1.00802 1.0077 1.00732 1.00689 1.0064 1.00586 1.00526 1.00461 1.00392 1.00319 1.00241 1.0016 1.00075 0.999876 0.998979 0.99806 0.997126 0.996178 0.995219 0.994254 0.993283 0.99231 0.991335 0.99036 0.989386 0.988414 0.987445 0.986478 0.985516 0.984557 0.983603 0.982654 0.98171 0.980772 0.979838 0.978908 0.977982 0.977057 0.976131 0.975201 0.974263 0.973312 0.972344 0.971351 0.970329 0.969271 0.968171 0.967024 0.965828 0.96458 0.963282 0.961939 0.960557 0.959146 0.957717 0.956284 0.954862 0.953462 0.952096 0.950776 0.949507 0.948294 0.947139 0.94604 0.944994 0.943997 0.943043 0.942127 0.941243 0.940385 0.939549 0.93873 0.937925 0.93713 0.936344 0.935564 0.934787 0.934013 0.933239 0.932463 0.931682 0.930895 0.930097 0.929285 0.928455 0.927605 0.926725 0.925757 0.924618 0.92366 0.923883 0.924447 0.92206 0.92206 
1.01826 1.00591 1.00534 1.00787 1.00753 1.00717 1.00723 1.0073 1.0073 1.00731 1.00734 1.00738 1.00743 1.0075 1.00758 1.00767 1.00776 1.00787 1.00798 1.0081 1.00822 1.00834 1.00845 1.00855 1.00864 1.00872 1.00877 1.00879 1.00879 1.00875 1.00867 1.00854 1.00838 1.00816 1.00789 1.00756 1.00719 1.00675 1.00627 1.00573 1.00513 1.00449 1.0038 1.00307 1.0023 1.00149 1.00065 0.999781 0.998888 0.997974 0.997043 0.996099 0.995144 0.994181 0.993212 0.992241 0.991267 0.990294 0.989321 0.98835 0.987381 0.986415 0.985453 0.984495 0.983542 0.982593 0.98165 0.980711 0.979777 0.978847 0.977919 0.976993 0.976065 0.975133 0.974194 0.973241 0.972271 0.971278 0.970255 0.969198 0.968099 0.966956 0.965764 0.964523 0.963233 0.961898 0.960526 0.959126 0.957708 0.956286 0.954872 0.953481 0.952124 0.95081 0.949546 0.948337 0.947184 0.946087 0.945042 0.944045 0.943091 0.942174 0.941288 0.940429 0.939591 0.93877 0.937963 0.937166 0.936377 0.935593 0.934813 0.934035 0.933256 0.932474 0.931687 0.930893 0.930088 0.92927 0.928431 0.927553 0.926642 0.925752 0.924859 0.923718 0.922829 0.920693 0.914145 0.914145 
1.00326 1.00757 1.00961 1.00735 1.00675 1.00729 1.0074 1.0073 1.00728 1.00731 1.00734 1.00738 1.00742 1.00749 1.00756 1.00765 1.00774 1.00784 1.00795 1.00806 1.00818 1.00829 1.00839 1.00849 1.00857 1.00863 1.00867 1.00869 1.00867 1.00863 1.00854 1.00841 1.00823 1.00801 1.00773 1.00741 1.00703 1.0066 1.00611 1.00557 1.00498 1.00435 1.00366 1.00294 1.00217 1.00137 1.00053 0.999668 0.99878 0.997872 0.996945 0.996005 0.995053 0.994093 0.993127 0.992157 0.991185 0.990212 0.98924 0.988269 0.987301 0.986335 0.985373 0.984414 0.983461 0.982511 0.981567 0.980627 0.979692 0.978761 0.977831 0.976903 0.975973 0.975038 0.974095 0.973139 0.972166 0.97117 0.970146 0.969088 0.96799 0.966849 0.965662 0.964426 0.963145 0.96182 0.96046 0.959071 0.957667 0.956258 0.954858 0.953479 0.952133 0.950829 0.949574 0.948372 0.947226 0.946133 0.945091 0.944097 0.943146 0.94223 0.941346 0.940488 0.939651 0.938831 0.938023 0.937226 0.936436 0.935651 0.934869 0.934088 0.933306 0.932521 0.931731 0.930933 0.930123 0.929297 0.928456 0.927596 0.926687 0.925708 0.924785 0.923852 0.922534 0.920288 0.916097 0.916097 
1.00747 1.00816 1.00732 1.00692 1.00752 1.00746 1.00725 1.00727 1.00732 1.00733 1.00734 1.00737 1.00742 1.00748 1.00755 1.00763 1.00772 1.00782 1.00792 1.00803 1.00813 1.00823 1.00833 1.00841 1.00848 1.00854 1.00857 1.00857 1.00854 1.00848 1.00839 1.00825 1.00806 1.00783 1.00756 1.00723 1.00685 1.00641 1.00593 1.00539 1.00481 1.00418 1.0035 1.00278 1.00202 1.00122 1.00039 0.999537 0.998655 0.997752 0.996831 0.995895 0.994948 0.993991 0.993027 0.992059 0.991088 0.990116 0.989144 0.988173 0.987204 0.986237 0.985274 0.984315 0.98336 0.98241 0.981464 0.980523 0.979586 0.978651 0.977719 0.976788 0.975854 0.974915 0.973967 0.973007 0.972029 0.971029 0.970002 0.968941 0.967843 0.966704 0.96552 0.964291 0.963019 0.961706 0.960359 0.958986 0.957598 0.956206 0.954823 0.95346 0.952129 0.950839 0.949596 0.948404 0.947266 0.946181 0.945146 0.944157 0.94321 0.942299 0.941419 0.940564 0.93973 0.938912 0.938106 0.93731 0.936521 0.935737 0.934954 0.934173 0.93339 0.932604 0.931813 0.931014 0.930205 0.929382 0.928537 0.927671 0.926792 0.925869 0.924881 0.923776 0.922161 0.920743 0.919613 0.919613 
1.00841 1.0074 1.007 1.00766 1.00755 1.00723 1.00729 1.00736 1.00733 1.00732 1.00735 1.00738 1.00742 1.00747 1.00754 1.00761 1.0077 1.00779 1.00789 1.00799 1.00808 1.00817 1.00826 1.00833 1.00839 1.00843 1.00844 1.00843 1.00839 1.00832 1.00821 1.00806 1.00787 1.00764 1.00735 1.00702 1.00664 1.00621 1.00572 1.00519 1.00461 1.00398 1.00331 1.0026 1.00184 1.00106 1.00024 0.999386 0.998512 0.997615 0.9967 0.995769 0.994826 0.993872 0.992912 0.991945 0.990976 0.990004 0.989032 0.98806 0.98709 0.986123 0.985158 0.984198 0.983241 0.982289 0.981341 0.980397 0.979457 0.97852 0.977584 0.976648 0.975709 0.974764 0.973811 0.972845 0.971861 0.970856 0.969824 0.968761 0.967662 0.966524 0.965344 0.964123 0.96286 0.96156 0.960229 0.958874 0.957505 0.956134 0.954771 0.953428 0.952115 0.950841 0.949613 0.948435 0.947309 0.946234 0.945207 0.944227 0.943286 0.942381 0.941507 0.940657 0.939828 0.939014 0.938212 0.93742 0.936633 0.935851 0.93507 0.93429 0.933509 0.932724 0.931935 0.931138 0.930332 0.929515 0.928683 0.927825 0.926943 0.926041 0.925069 0.924042 0.922795 0.92161 0.920918 0.920918 
1.007 1.00739 1.00761 1.0075 1.00728 1.00737 1.00742 1.00735 1.00733 1.00735 1.00737 1.00739 1.00743 1.00748 1.00754 1.00761 1.00769 1.00777 1.00786 1.00795 1.00803 1.00811 1.00818 1.00824 1.00828 1.00831 1.00831 1.00828 1.00823 1.00814 1.00802 1.00786 1.00766 1.00741 1.00712 1.00679 1.00641 1.00597 1.00549 1.00496 1.00439 1.00377 1.0031 1.0024 1.00165 1.00087 1.00006 0.999215 0.998348 0.997459 0.99655 0.995625 0.994686 0.993737 0.992779 0.991815 0.990846 0.989875 0.988903 0.98793 0.986959 0.98599 0.985024 0.984062 0.983103 0.982149 0.981198 0.980251 0.979308 0.978366 0.977426 0.976484 0.975539 0.974588 0.973628 0.972655 0.971665 0.970654 0.969617 0.96855 0.96745 0.966314 0.965139 0.963926 0.962675 0.961391 0.960077 0.958743 0.957396 0.956047 0.954707 0.953387 0.952095 0.950842 0.949632 0.948469 0.947357 0.946294 0.945278 0.944307 0.943375 0.942478 0.941611 0.940768 0.939945 0.939138 0.938342 0.937554 0.936772 0.935994 0.935217 0.93444 0.933662 0.932881 0.932096 0.931305 0.930505 0.929695 0.928873 0.928037 0.927179 0.926297 0.925349 0.924368 0.923452 0.922482 0.921637 0.921637 
1.00724 1.00745 1.00749 1.00737 1.00743 1.00747 1.00739 1.00737 1.00739 1.00739 1.0074 1.00742 1.00745 1.0075 1.00755 1.00761 1.00768 1.00776 1.00783 1.00791 1.00798 1.00804 1.0081 1.00814 1.00817 1.00817 1.00815 1.00811 1.00804 1.00794 1.0078 1.00763 1.00742 1.00717 1.00688 1.00654 1.00615 1.00572 1.00524 1.00472 1.00414 1.00353 1.00287 1.00217 1.00143 1.00066 0.999858 0.999024 0.998165 0.997283 0.99638 0.995461 0.994528 0.993583 0.992628 0.991666 0.990699 0.989729 0.988757 0.987784 0.986812 0.985841 0.984873 0.983909 0.982947 0.98199 0.981036 0.980086 0.979138 0.978192 0.977246 0.976299 0.975347 0.974389 0.973422 0.972441 0.971444 0.970427 0.969385 0.968316 0.967215 0.966081 0.964912 0.963708 0.962471 0.961203 0.959909 0.958597 0.957275 0.955952 0.954638 0.953342 0.952075 0.950843 0.949653 0.948509 0.947413 0.946364 0.945361 0.9444 0.943479 0.942591 0.941733 0.940898 0.940083 0.939283 0.938495 0.937714 0.936938 0.936165 0.935394 0.934622 0.933849 0.933073 0.932294 0.93151 0.93072 0.929922 0.929113 0.928295 0.927459 0.92661 0.925745 0.924844 0.923998 0.923174 0.922358 0.922358 
1.00741 1.00744 1.00743 1.00748 1.00751 1.00745 1.00744 1.00745 1.00744 1.00743 1.00745 1.00747 1.00749 1.00753 1.00758 1.00763 1.00769 1.00775 1.00781 1.00787 1.00793 1.00798 1.00801 1.00804 1.00804 1.00803 1.00799 1.00793 1.00784 1.00773 1.00758 1.00739 1.00717 1.00691 1.00661 1.00627 1.00588 1.00545 1.00497 1.00445 1.00388 1.00327 1.00262 1.00193 1.0012 1.00044 0.99964 0.998815 0.997964 0.997089 0.996194 0.995281 0.994353 0.993412 0.992461 0.991502 0.990537 0.989567 0.988595 0.987621 0.986648 0.985676 0.984706 0.983739 0.982776 0.981815 0.980858 0.979904 0.978951 0.978 0.977048 0.976094 0.975136 0.974171 0.973195 0.972207 0.971203 0.97018 0.969133 0.968061 0.966961 0.965831 0.964669 0.963476 0.962254 0.961004 0.959733 0.958445 0.957149 0.955854 0.954567 0.953299 0.952058 0.950851 0.949683 0.948558 0.947479 0.946446 0.945456 0.944508 0.943598 0.942721 0.941872 0.941047 0.940242 0.939451 0.938671 0.937898 0.93713 0.936365 0.9356 0.934835 0.934068 0.9333 0.932528 0.931752 0.930972 0.930187 0.929395 0.928597 0.927789 0.926968 0.926155 0.92534 0.924527 0.923774 0.923059 0.923059 
1.00732 1.00749 1.00752 1.00754 1.00752 1.00751 1.00752 1.00751 1.0075 1.0075 1.00751 1.00753 1.00755 1.00758 1.00762 1.00766 1.00771 1.00776 1.0078 1.00784 1.00788 1.00791 1.00792 1.00793 1.00791 1.00788 1.00782 1.00774 1.00764 1.00751 1.00734 1.00714 1.00691 1.00664 1.00634 1.00599 1.0056 1.00517 1.00469 1.00417 1.00361 1.003 1.00236 1.00167 1.00095 1.0002 0.999407 0.99859 0.997747 0.99688 0.995992 0.995085 0.994163 0.993227 0.99228 0.991324 0.99036 0.989392 0.98842 0.987446 0.986472 0.985498 0.984527 0.983557 0.98259 0.981627 0.980666 0.979707 0.97875 0.977793 0.976835 0.975875 0.974909 0.973936 0.972953 0.971958 0.970947 0.969918 0.968868 0.967794 0.966695 0.96557 0.964417 0.963237 0.962031 0.960801 0.959554 0.958292 0.957025 0.955759 0.954502 0.953263 0.95205 0.950868 0.949723 0.94862 0.947559 0.946542 0.945567 0.944632 0.943734 0.942868 0.942031 0.941216 0.940421 0.93964 0.938869 0.938106 0.937347 0.936591 0.935834 0.935077 0.934319 0.933558 0.932795 0.93203 0.931261 0.930489 0.929713 0.928933 0.928153 0.927368 0.926585 0.92582 0.92506 0.924337 0.923666 0.923666 
1.00737 1.00757 1.00759 1.00759 1.00759 1.0076 1.00759 1.00758 1.00759 1.00759 1.0076 1.00761 1.00763 1.00765 1.00768 1.00771 1.00774 1.00777 1.0078 1.00782 1.00784 1.00785 1.00784 1.00782 1.00778 1.00773 1.00765 1.00755 1.00743 1.00728 1.0071 1.00689 1.00665 1.00637 1.00605 1.0057 1.00531 1.00488 1.0044 1.00389 1.00333 1.00273 1.00209 1.00141 1.00069 0.999944 0.999164 0.998355 0.997519 0.99666 0.995779 0.994879 0.993962 0.993031 0.992088 0.991135 0.990174 0.989207 0.988235 0.987261 0.986286 0.985311 0.984337 0.983365 0.982396 0.981428 0.980464 0.9795 0.978538 0.977576 0.976612 0.975644 0.974671 0.97369 0.9727 0.971697 0.97068 0.969646 0.968593 0.96752 0.966424 0.965305 0.964162 0.962996 0.961809 0.960602 0.959379 0.958146 0.956908 0.955673 0.954447 0.953238 0.952053 0.950898 0.949778 0.948697 0.947655 0.946655 0.945696 0.944774 0.943888 0.943035 0.942208 0.941405 0.940621 0.939851 0.939091 0.938338 0.93759 0.936843 0.936096 0.935348 0.934599 0.933848 0.933094 0.932339 0.931582 0.930823 0.930063 0.929302 0.928542 0.927787 0.927035 0.926296 0.925578 0.924881 0.924221 0.924221 
1.00745 1.00764 1.00766 1.00767 1.00768 1.00768 1.00768 1.00768 1.00769 1.00769 1.0077 1.00771 1.00773 1.00774 1.00776 1.00778 1.00779 1.00781 1.00781 1.00782 1.00781 1.00779 1.00776 1.00772 1.00765 1.00758 1.00748 1.00736 1.00722 1.00705 1.00685 1.00663 1.00638 1.00609 1.00577 1.00542 1.00502 1.00459 1.00411 1.0036 1.00304 1.00244 1.00181 1.00114 1.00043 0.999688 0.998915 0.998114 0.997286 0.996434 0.99556 0.994666 0.993756 0.99283 0.991891 0.990941 0.989982 0.989017 0.988046 0.987072 0.986096 0.985119 0.984143 0.983169 0.982196 0.981225 0.980256 0.979288 0.97832 0.977352 0.976381 0.975406 0.974426 0.973438 0.97244 0.971431 0.970409 0.969371 0.968317 0.967245 0.966154 0.965043 0.963913 0.962763 0.961595 0.960411 0.959215 0.958011 0.956804 0.955601 0.954407 0.953229 0.952074 0.950946 0.949851 0.948791 0.94777 0.946787 0.945843 0.944935 0.944062 0.94322 0.942406 0.941614 0.940841 0.940083 0.939335 0.938594 0.937856 0.93712 0.936384 0.935647 0.934908 0.934167 0.933423 0.932679 0.931933 0.931187 0.930442 0.929698 0.928957 0.928223 0.927497 0.926781 0.926085 0.925408 0.924757 0.924757 
1.00751 1.00773 1.00775 1.00776 1.00777 1.00778 1.00779 1.0078 1.0078 1.00781 1.00782 1.00783 1.00784 1.00785 1.00786 1.00786 1.00786 1.00786 1.00784 1.00782 1.00779 1.00775 1.00769 1.00762 1.00753 1.00743 1.00731 1.00717 1.00701 1.00683 1.00662 1.00638 1.00612 1.00582 1.0055 1.00514 1.00474 1.0043 1.00383 1.00331 1.00276 1.00217 1.00154 1.00087 1.00017 0.999433 0.998668 0.997874 0.997053 0.996208 0.995341 0.994455 0.99355 0.992629 0.991694 0.990748 0.989792 0.988827 0.987857 0.986883 0.985906 0.984928 0.98395 0.982972 0.981996 0.981021 0.980048 0.979075 0.978101 0.977126 0.976149 0.975167 0.974179 0.973184 0.97218 0.971165 0.970139 0.969099 0.968045 0.966976 0.965891 0.964791 0.963674 0.962542 0.961395 0.960236 0.959068 0.957894 0.956718 0.955547 0.954385 0.953239 0.952113 0.951013 0.949942 0.948905 0.947904 0.946938 0.946009 0.945116 0.944256 0.943426 0.942624 0.941844 0.941083 0.940337 0.939601 0.938872 0.938146 0.937422 0.936698 0.935972 0.935244 0.934514 0.933781 0.933048 0.932314 0.93158 0.930848 0.93012 0.929395 0.928678 0.92797 0.927273 0.926592 0.925929 0.925288 0.925288 
1.00759 1.00783 1.00785 1.00786 1.00788 1.00789 1.00791 1.00792 1.00793 1.00795 1.00796 1.00797 1.00797 1.00798 1.00797 1.00796 1.00795 1.00792 1.00789 1.00784 1.00778 1.00771 1.00763 1.00754 1.00742 1.0073 1.00716 1.007 1.00682 1.00662 1.00639 1.00614 1.00587 1.00557 1.00523 1.00487 1.00446 1.00403 1.00355 1.00304 1.00249 1.0019 1.00127 1.00061 0.999916 0.999188 0.998429 0.997642 0.996829 0.995991 0.995131 0.99425 0.993351 0.992435 0.991505 0.990562 0.989608 0.988645 0.987675 0.986701 0.985723 0.984743 0.983762 0.982782 0.981802 0.980822 0.979844 0.978865 0.977886 0.976904 0.97592 0.974931 0.973936 0.972935 0.971924 0.970905 0.969875 0.968835 0.967783 0.966719 0.965642 0.964553 0.963452 0.962339 0.961215 0.960082 0.958942 0.957798 0.956654 0.955515 0.954385 0.95327 0.952173 0.951101 0.950055 0.94904 0.948058 0.94711 0.946197 0.945317 0.94447 0.943652 0.942862 0.942094 0.941345 0.940611 0.939888 0.939172 0.93846 0.937748 0.937037 0.936323 0.935606 0.934888 0.934167 0.933444 0.932722 0.932 0.931281 0.930565 0.929855 0.929152 0.928458 0.927776 0.927107 0.926454 0.92582 0.92582 
1.00769 1.00794 1.00796 1.00798 1.008 1.00802 1.00804 1.00806 1.00808 1.0081 1.00811 1.00812 1.00812 1.00812 1.00811 1.00808 1.00805 1.008 1.00795 1.00788 1.00779 1.0077 1.00759 1.00747 1.00733 1.00718 1.00702 1.00684 1.00664 1.00642 1.00618 1.00592 1.00564 1.00533 1.00499 1.00461 1.00421 1.00377 1.00329 1.00278 1.00223 1.00165 1.00103 1.00037 0.99968 0.998958 0.998206 0.997426 0.996619 0.995788 0.994934 0.99406 0.993166 0.992255 0.991329 0.990389 0.989437 0.988476 0.987506 0.986531 0.985552 0.98457 0.983586 0.982602 0.981617 0.980633 0.979649 0.978664 0.977678 0.97669 0.975699 0.974703 0.973701 0.972693 0.971678 0.970655 0.969624 0.968584 0.967535 0.966478 0.965411 0.964336 0.963252 0.962159 0.961059 0.959952 0.95884 0.957727 0.956615 0.955508 0.954409 0.953325 0.952257 0.951211 0.95019 0.949197 0.948234 0.947303 0.946405 0.945539 0.944704 0.943899 0.94312 0.942364 0.941628 0.940907 0.940196 0.939494 0.938795 0.938097 0.937399 0.936698 0.935994 0.935288 0.934578 0.933868 0.933157 0.932446 0.931739 0.931035 0.930337 0.929646 0.928964 0.928293 0.927634 0.92699 0.926361 0.926361 
1.00779 1.00806 1.00808 1.0081 1.00812 1.00815 1.00818 1.00821 1.00823 1.00826 1.00827 1.00828 1.00829 1.00828 1.00825 1.00822 1.00817 1.0081 1.00802 1.00793 1.00782 1.0077 1.00756 1.00742 1.00726 1.00708 1.0069 1.0067 1.00648 1.00625 1.00599 1.00572 1.00543 1.00511 1.00476 1.00439 1.00398 1.00354 1.00306 1.00255 1.002 1.00142 1.0008 1.00015 0.999467 0.998751 0.998005 0.997232 0.996431 0.995607 0.994759 0.993891 0.993002 0.992096 0.991173 0.990236 0.989286 0.988325 0.987356 0.986379 0.985398 0.984413 0.983426 0.982437 0.981448 0.980458 0.979468 0.978476 0.977483 0.976488 0.975489 0.974486 0.973478 0.972464 0.971445 0.97042 0.969388 0.96835 0.967307 0.966258 0.965203 0.964143 0.963077 0.962006 0.96093 0.95985 0.958767 0.957684 0.956602 0.955526 0.954459 0.953404 0.952364 0.951344 0.950347 0.949375 0.948431 0.947517 0.946633 0.945781 0.944958 0.944165 0.943398 0.942654 0.94193 0.941222 0.940525 0.939836 0.939151 0.938468 0.937783 0.937096 0.936406 0.935712 0.935016 0.934317 0.933617 0.932918 0.932222 0.931529 0.930841 0.930161 0.92949 0.928828 0.928178 0.92754 0.926917 0.926917 
1.00791 1.00819 1.00821 1.00823 1.00826 1.00829 1.00833 1.00836 1.0084 1.00843 1.00845 1.00846 1.00846 1.00844 1.00841 1.00836 1.0083 1.00821 1.00811 1.008 1.00786 1.00772 1.00756 1.00739 1.0072 1.00701 1.0068 1.00658 1.00634 1.0061 1.00583 1.00555 1.00524 1.00492 1.00456 1.00418 1.00377 1.00333 1.00286 1.00235 1.0018 1.00122 1.00061 0.999962 0.999282 0.998572 0.997832 0.997065 0.996271 0.995453 0.994611 0.993748 0.992864 0.991962 0.991042 0.990107 0.989158 0.988198 0.987228 0.98625 0.985265 0.984277 0.983285 0.982291 0.981296 0.9803 0.979303 0.978304 0.977303 0.9763 0.975294 0.974284 0.973269 0.972251 0.971228 0.970202 0.969171 0.968138 0.967101 0.966062 0.965021 0.963977 0.962931 0.961882 0.96083 0.959777 0.958722 0.957669 0.956618 0.955572 0.954534 0.953507 0.952495 0.9515 0.950526 0.949575 0.948649 0.947751 0.946882 0.946042 0.945232 0.94445 0.943695 0.942963 0.942252 0.941556 0.940873 0.940199 0.939528 0.938859 0.938189 0.937517 0.936841 0.93616 0.935477 0.93479 0.934103 0.933415 0.932729 0.932047 0.93137 0.9307 0.930037 0.929384 0.928741 0.92811 0.927492 0.927492 
1.00803 1.00832 1.00834 1.00837 1.0084 1.00844 1.00849 1.00853 1.00857 1.0086 1.00863 1.00864 1.00864 1.00862 1.00858 1.00852 1.00844 1.00834 1.00822 1.00808 1.00792 1.00775 1.00757 1.00738 1.00717 1.00695 1.00672 1.00649 1.00624 1.00597 1.00569 1.0054 1.00509 1.00475 1.0044 1.00401 1.0036 1.00316 1.00268 1.00217 1.00163 1.00106 1.00045 0.999805 0.99913 0.998426 0.997693 0.996932 0.996144 0.995332 0.994495 0.993637 0.992757 0.991858 0.990941 0.990007 0.989059 0.988098 0.987126 0.986145 0.985158 0.984164 0.983167 0.982167 0.981165 0.980161 0.979156 0.978149 0.97714 0.976129 0.975115 0.974098 0.973078 0.972055 0.97103 0.970004 0.968976 0.967948 0.966921 0.965893 0.964866 0.96384 0.962814 0.961788 0.960761 0.959734 0.958708 0.957683 0.95666 0.955643 0.954634 0.953635 0.952649 0.951678 0.950726 0.949795 0.948887 0.948004 0.947149 0.946323 0.945524 0.944754 0.944011 0.943291 0.942592 0.941909 0.94124 0.94058 0.939924 0.939271 0.938616 0.937958 0.937297 0.936631 0.935961 0.935287 0.934612 0.933936 0.933261 0.93259 0.931922 0.931261 0.930607 0.929962 0.929327 0.928702 0.928089 0.928089 
1.00817 1.00847 1.00849 1.00852 1.00856 1.0086 1.00865 1.0087 1.00874 1.00878 1.00881 1.00882 1.00882 1.00879 1.00875 1.00868 1.00858 1.00847 1.00833 1.00817 1.008 1.00781 1.0076 1.00739 1.00716 1.00692 1.00668 1.00642 1.00615 1.00588 1.00559 1.00529 1.00496 1.00462 1.00426 1.00388 1.00346 1.00302 1.00254 1.00204 1.0015 1.00093 1.00032 0.999685 0.999016 0.998318 0.99759 0.996835 0.996053 0.995246 0.994415 0.993561 0.992685 0.991788 0.990872 0.989939 0.98899 0.988028 0.987053 0.986069 0.985076 0.984077 0.983073 0.982066 0.981056 0.980043 0.979029 0.978013 0.976995 0.975975 0.974953 0.973929 0.972904 0.971878 0.970852 0.969827 0.968804 0.967783 0.966765 0.965751 0.964741 0.963733 0.962728 0.961725 0.960723 0.959722 0.958722 0.957725 0.956731 0.955741 0.954759 0.953786 0.952824 0.951877 0.950946 0.950034 0.949143 0.948276 0.947435 0.946621 0.945835 0.945076 0.944344 0.943636 0.942949 0.94228 0.941625 0.940979 0.940338 0.9397 0.939061 0.938419 0.937773 0.937122 0.936466 0.935806 0.935144 0.93448 0.933817 0.933155 0.932498 0.931846 0.931201 0.930564 0.929936 0.929317 0.928709 0.928709 
1.00831 1.00862 1.00864 1.00867 1.00872 1.00877 1.00882 1.00887 1.00892 1.00897 1.009 1.00901 1.009 1.00898 1.00892 1.00884 1.00874 1.00861 1.00846 1.00828 1.00809 1.00788 1.00765 1.00742 1.00717 1.00692 1.00665 1.00638 1.0061 1.00581 1.00551 1.0052 1.00487 1.00453 1.00416 1.00377 1.00336 1.00291 1.00244 1.00194 1.0014 1.00084 1.00024 0.999604 0.998942 0.998249 0.997528 0.996779 0.996002 0.9952 0.994373 0.993522 0.992649 0.991754 0.990838 0.989905 0.988954 0.987988 0.98701 0.98602 0.985021 0.984015 0.983003 0.981987 0.980967 0.979945 0.97892 0.977894 0.976866 0.975837 0.974807 0.973777 0.972748 0.971719 0.970693 0.969671 0.968653 0.967641 0.966636 0.965636 0.964643 0.963655 0.962671 0.961691 0.960714 0.959738 0.958765 0.957794 0.956826 0.955863 0.954907 0.953958 0.95302 0.952095 0.951184 0.950291 0.949417 0.948565 0.947738 0.946936 0.946162 0.945414 0.944694 0.943998 0.943323 0.942667 0.942026 0.941395 0.94077 0.940147 0.939524 0.938898 0.938268 0.937632 0.936991 0.936346 0.935697 0.935046 0.934394 0.933744 0.933097 0.932455 0.931819 0.93119 0.930569 0.929957 0.929355 0.929355 
1.00847 1.00878 1.0088 1.00884 1.00888 1.00893 1.00899 1.00905 1.0091 1.00915 1.00918 1.00919 1.00919 1.00915 1.0091 1.00901 1.0089 1.00876 1.00859 1.0084 1.00819 1.00797 1.00772 1.00747 1.00721 1.00694 1.00666 1.00637 1.00608 1.00578 1.00547 1.00515 1.00481 1.00447 1.0041 1.00371 1.00329 1.00285 1.00238 1.00188 1.00135 1.00079 1.00019 0.999566 0.998909 0.998223 0.997507 0.996764 0.995992 0.995194 0.994371 0.993523 0.99265 0.991756 0.99084 0.989904 0.98895 0.98798 0.986996 0.986 0.984993 0.983978 0.982956 0.981929 0.980899 0.979865 0.978829 0.977791 0.976753 0.975715 0.974677 0.97364 0.972606 0.971577 0.970552 0.969534 0.968524 0.967522 0.96653 0.965546 0.964571 0.963604 0.962642 0.961686 0.960732 0.959782 0.958834 0.957888 0.956946 0.956008 0.955076 0.954151 0.953235 0.952331 0.95144 0.950565 0.949707 0.94887 0.948056 0.947267 0.946504 0.945769 0.945059 0.944375 0.943713 0.943071 0.942443 0.941827 0.941217 0.940611 0.940004 0.939394 0.93878 0.938161 0.937535 0.936905 0.936269 0.935632 0.934992 0.934354 0.933718 0.933086 0.932459 0.931839 0.931226 0.930622 0.930026 0.930026 
1.00863 1.00895 1.00897 1.009 1.00905 1.00911 1.00917 1.00923 1.00928 1.00933 1.00936 1.00938 1.00937 1.00933 1.00927 1.00918 1.00905 1.00891 1.00873 1.00853 1.00831 1.00807 1.00781 1.00754 1.00727 1.00698 1.00669 1.00639 1.00608 1.00578 1.00546 1.00513 1.00479 1.00444 1.00407 1.00368 1.00326 1.00282 1.00236 1.00186 1.00133 1.00078 1.00019 0.999571 0.99892 0.99824 0.99753 0.996792 0.996025 0.995231 0.99441 0.993563 0.992691 0.991795 0.990877 0.989937 0.988979 0.988002 0.98701 0.986006 0.984989 0.983963 0.98293 0.98189 0.980846 0.9798 0.978751 0.977701 0.976651 0.975603 0.974557 0.973515 0.972478 0.971448 0.970426 0.969414 0.968413 0.967424 0.966446 0.96548 0.964524 0.963578 0.962639 0.961705 0.960776 0.95985 0.958927 0.958006 0.957087 0.956173 0.955264 0.954362 0.953467 0.952583 0.951711 0.950853 0.950012 0.94919 0.948389 0.947613 0.946862 0.946138 0.94544 0.944768 0.944119 0.943489 0.942876 0.942274 0.94168 0.94109 0.940499 0.939907 0.939309 0.938706 0.938096 0.937481 0.93686 0.936236 0.93561 0.934984 0.93436 0.933738 0.933122 0.932511 0.931907 0.93131 0.930722 0.930722 
1.0088 1.00912 1.00914 1.00918 1.00923 1.00928 1.00934 1.00941 1.00946 1.00951 1.00954 1.00955 1.00954 1.0095 1.00944 1.00934 1.00921 1.00906 1.00887 1.00866 1.00843 1.00818 1.00791 1.00763 1.00734 1.00705 1.00674 1.00643 1.00612 1.0058 1.00548 1.00514 1.0048 1.00444 1.00407 1.00368 1.00327 1.00284 1.00237 1.00188 1.00136 1.00081 1.00023 0.99962 0.998976 0.998302 0.997597 0.996864 0.996101 0.995309 0.99449 0.993643 0.99277 0.991871 0.990948 0.990003 0.989038 0.988052 0.987051 0.986035 0.985006 0.983968 0.98292 0.981866 0.980807 0.979746 0.978682 0.977619 0.976558 0.975499 0.974445 0.973398 0.972358 0.971329 0.970312 0.969307 0.968317 0.967341 0.96638 0.965433 0.964498 0.963573 0.962657 0.961747 0.960842 0.95994 0.95904 0.958143 0.957248 0.956356 0.95547 0.954589 0.953715 0.95285 0.951997 0.951156 0.950331 0.949523 0.948736 0.947972 0.947234 0.946521 0.945836 0.945175 0.944539 0.943922 0.943323 0.942736 0.942157 0.941583 0.94101 0.940434 0.939853 0.939266 0.938673 0.938073 0.937468 0.936859 0.936246 0.935633 0.935021 0.934411 0.933805 0.933204 0.93261 0.932022 0.931442 0.931442 
1.00897 1.0093 1.00932 1.00936 1.0094 1.00946 1.00952 1.00958 1.00964 1.00969 1.00972 1.00973 1.00971 1.00967 1.0096 1.0095 1.00937 1.00921 1.00902 1.0088 1.00856 1.00831 1.00803 1.00774 1.00744 1.00713 1.00682 1.0065 1.00618 1.00586 1.00553 1.00519 1.00484 1.00449 1.00412 1.00373 1.00332 1.00289 1.00243 1.00195 1.00143 1.00089 1.00032 0.999713 0.999076 0.998408 0.997709 0.99698 0.996219 0.99543 0.99461 0.993762 0.992886 0.991982 0.991053 0.990101 0.989124 0.988129 0.987116 0.986085 0.985042 0.983989 0.982924 0.981853 0.980777 0.979699 0.97862 0.977541 0.976468 0.975398 0.974335 0.973284 0.972243 0.971215 0.970204 0.969209 0.968231 0.967271 0.966328 0.965401 0.964488 0.963586 0.962693 0.961807 0.960926 0.960048 0.959171 0.958297 0.957425 0.956555 0.95569 0.954829 0.953976 0.95313 0.952295 0.951471 0.950661 0.949869 0.949096 0.948345 0.947619 0.946919 0.946245 0.945597 0.944973 0.94437 0.943785 0.943212 0.942649 0.942091 0.941534 0.940975 0.940411 0.939842 0.939265 0.938681 0.938092 0.937497 0.936899 0.936299 0.935699 0.935102 0.934507 0.933918 0.933334 0.932756 0.932185 0.932185 
1.00915 1.00948 1.0095 1.00954 1.00959 1.00964 1.0097 1.00976 1.00982 1.00986 1.00989 1.00989 1.00988 1.00983 1.00976 1.00966 1.00952 1.00936 1.00917 1.00895 1.0087 1.00844 1.00816 1.00787 1.00756 1.00725 1.00692 1.0066 1.00627 1.00594 1.00561 1.00527 1.00492 1.00456 1.0042 1.00381 1.00341 1.00298 1.00253 1.00206 1.00155 1.00102 1.00045 0.999852 0.999222 0.99856 0.997866 0.997139 0.996381 0.995592 0.99477 0.99392 0.993038 0.992127 0.99119 0.990225 0.989237 0.988229 0.987199 0.986152 0.985094 0.98402 0.982936 0.981847 0.980751 0.979652 0.978557 0.977462 0.976373 0.975295 0.974223 0.973166 0.972126 0.971101 0.970096 0.969113 0.96815 0.967207 0.966285 0.965378 0.964489 0.963611 0.962742 0.961881 0.961024 0.960169 0.959316 0.958464 0.957614 0.956766 0.955922 0.955082 0.954248 0.953421 0.952604 0.951797 0.951004 0.950226 0.949467 0.94873 0.948017 0.947329 0.946668 0.946032 0.945421 0.944832 0.94426 0.943703 0.943155 0.942613 0.942073 0.94153 0.940984 0.940431 0.939871 0.939304 0.93873 0.93815 0.937567 0.936981 0.936395 0.93581 0.935228 0.93465 0.934076 0.933509 0.932949 0.932949 
1.00934 1.00967 1.00969 1.00972 1.00977 1.00982 1.00988 1.00994 1.00999 1.01003 1.01005 1.01006 1.01004 1.00999 1.00992 1.00981 1.00968 1.00951 1.00932 1.0091 1.00885 1.00859 1.0083 1.00801 1.00769 1.00738 1.00705 1.00672 1.00639 1.00606 1.00572 1.00538 1.00503 1.00468 1.00431 1.00393 1.00353 1.00312 1.00267 1.00221 1.00171 1.00118 1.00062 1.00004 0.999412 0.998756 0.998066 0.997342 0.996585 0.995794 0.99497 0.994114 0.993223 0.992306 0.991355 0.990376 0.989375 0.988347 0.987297 0.986236 0.985156 0.984056 0.982956 0.981842 0.980723 0.979602 0.978486 0.977379 0.97627 0.97518 0.974105 0.97304 0.971998 0.970982 0.969984 0.969013 0.968068 0.967143 0.966243 0.965361 0.964494 0.963643 0.962799 0.961963 0.96113 0.9603 0.95947 0.958641 0.957813 0.956987 0.956163 0.955344 0.954529 0.953722 0.952922 0.952133 0.951356 0.950594 0.94985 0.949126 0.948426 0.947752 0.947103 0.946481 0.945883 0.945307 0.94475 0.944207 0.943675 0.943149 0.942625 0.942099 0.941569 0.941033 0.94049 0.939939 0.939381 0.938817 0.938249 0.937677 0.937105 0.936533 0.935964 0.935398 0.934837 0.934281 0.933732 0.933732 
1.00952 1.00986 1.00988 1.00991 1.00995 1.01 1.01006 1.01011 1.01016 1.0102 1.01022 1.01022 1.01019 1.01015 1.01007 1.00996 1.00983 1.00966 1.00947 1.00925 1.00901 1.00874 1.00846 1.00816 1.00785 1.00753 1.0072 1.00687 1.00654 1.0062 1.00586 1.00552 1.00518 1.00483 1.00447 1.00409 1.0037 1.00329 1.00286 1.0024 1.00191 1.0014 1.00085 1.00026 0.999647 0.998996 0.998309 0.997587 0.996829 0.996035 0.995208 0.994341 0.993444 0.992514 0.991544 0.990554 0.98953 0.988478 0.987413 0.986331 0.985216 0.984105 0.98298 0.981828 0.980689 0.97955 0.978402 0.977278 0.976163 0.97505 0.973969 0.972904 0.971857 0.970845 0.969863 0.968901 0.967977 0.967075 0.966195 0.965341 0.964499 0.963674 0.962858 0.962047 0.961241 0.960435 0.959629 0.958823 0.958018 0.957213 0.956411 0.955612 0.954817 0.954029 0.953248 0.952477 0.951716 0.950971 0.950242 0.949533 0.948848 0.948187 0.947552 0.946943 0.946358 0.945796 0.945253 0.944726 0.944209 0.943698 0.94319 0.942681 0.942168 0.941649 0.941122 0.940588 0.940046 0.939497 0.938944 0.938387 0.937829 0.937271 0.936714 0.936161 0.935613 0.935069 0.934532 0.934532 