# vtk DataFile Version 3.0
LBM simulation at step 70
ASCII
DATASET STRUCTURED_POINTS
DIMENSIONS 256 256 1
ORIGIN 0 0 0
SPACING 1 1 1
POINT_DATA 65536
SCALARS density float
LOOKUP_TABLE default
0.738518 1.08368 1.13036 1.08844 1.08045 1.08939 1.09122 1.08941 1.08876 1.08883 1.08869 1.0884 1.08814 1.08794 1.08773 1.08753 1.08732 1.08712 1.08691 1.08671 1.08649 1.08627 1.08604 1.0858 1.08554 1.08526 1.08495 1.0846 1.08423 1.08385 1.08345 1.08303 1.08249 1.08162 1.08006 1.07729 1.07275 1.06601 1.05707 1.04646 1.03528 1.02485 1.01618 1.00976 1.00545 1.00284 1.00137 1.00062 1.00026 1.0001 1.00004 1.00001 1 1 1 1 1 1 1 1 1 1 1 1 1 1 1 1 1 1 1 1 1 1 1 1 1 1 1 1 1 1 1 1 1 1 1 1 1 1 1 1 1 1 1 1 1 1 1 1 1 1 1 1 1 1 1 1 1 1 1 1 1 1 1 1 1 1 1 1 1 1 1 1 1 1 1 1 1 1 1 1 1 1 1 1 1 1 1 1 1 1 1 1 1 1 1 1 1 1 1 1 1 1 1 1 1 1 1 1 1 1 1 1 1 1 1 1 1 1 1 1 1 1 1 1 1 1 1 1 1 1 1 1 1 1 1 1 1 1 1 1 1 1 1 1 1 1 1 1 1 1 1 1 0.999999 0.999996 0.999989 0.999973 0.999935 0.999856 0.999702 0.999424 0.998953 0.998211 0.99712 0.995619 0.99368 0.991322 0.988612 0.985655 0.982576 0.979501 0.976533 0.973741 0.971155 0.968772 0.966562 0.964483 0.962493 0.960553 0.958639 0.956731 0.954821 0.952901 0.950969 0.949018 0.947043 0.945036 0.942989 0.940891 0.938732 0.936497 0.93417 0.931729 0.929146 0.926395 0.923423 0.920113 0.916392 0.912379 0.90759 0.899897 0.890383 0.885965 0.862858 0.7023 
1.12668 1.06015 1.05535 1.0905 1.09405 1.08868 1.08789 1.08903 1.08911 1.0887 1.08842 1.08826 1.08805 1.08785 1.08762 1.08743 1.08721 1.08702 1.0868 1.0866 1.08638 1.08615 1.08591 1.08566 1.08538 1.08509 1.08476 1.08441 1.08402 1.08361 1.08316 1.08262 1.08187 1.08072 1.07888 1.07599 1.07164 1.06551 1.05747 1.04779 1.03725 1.02699 1.01809 1.01121 1.00644 1.00343 1.0017 1.00079 1.00034 1.00014 1.00005 1.00002 1.00001 1 1 1 1 1 1 1 1 1 1 1 1 1 1 1 1 1 1 1 1 1 1 1 1 1 1 1 1 1 1 1 1 1 1 1 1 1 1 1 1 1 1 1 1 1 1 1 1 1 1 1 1 1 1 1 1 1 1 1 1 1 1 1 1 1 1 1 1 1 1 1 1 1 1 1 1 1 1 1 1 1 1 1 1 1 1 1 1 1 1 1 1 1 1 1 1 1 1 1 1 1 1 1 1 1 1 1 1 1 1 1 1 1 1 1 1 1 1 1 1 1 1 1 1 1 1 1 1 1 1 1 1 1 1 1 1 1 1 1 1 1 1 1 1 1 1 1 1 1 1 0.999999 0.999998 0.999995 0.999986 0.999965 0.999919 0.999825 0.999647 0.99933 0.998808 0.998004 0.996847 0.995289 0.993313 0.990948 0.988264 0.985362 0.982358 0.979362 0.976464 0.973725 0.971171 0.968798 0.966582 0.964489 0.96248 0.960523 0.958594 0.956675 0.954755 0.952828 0.950887 0.948927 0.946941 0.944921 0.94286 0.940746 0.938567 0.936309 0.933954 0.931481 0.928859 0.926042 0.922988 0.919666 0.915898 0.91124 0.905885 0.900823 0.89241 0.868649 0.844667 0.844667 
1.13572 1.06417 1.07303 1.09264 1.08972 1.08728 1.0884 1.08904 1.08869 1.08842 1.08828 1.08814 1.0879 1.08772 1.08749 1.08731 1.08709 1.0869 1.08667 1.08647 1.08623 1.08601 1.08575 1.08549 1.0852 1.08489 1.08454 1.08417 1.08375 1.08329 1.08276 1.0821 1.08121 1.07991 1.07797 1.07513 1.07107 1.0655 1.05818 1.04919 1.03908 1.02887 1.01972 1.01243 1.00725 1.00392 1.00197 1.00092 1.0004 1.00016 1.00006 1.00002 1.00001 1 1 1 1 1 1 1 1 1 1 1 1 1 1 1 1 1 1 1 1 1 1 1 1 1 1 1 1 1 1 1 1 1 1 1 1 1 1 1 1 1 1 1 1 1 1 1 1 1 1 1 1 1 1 1 1 1 1 1 1 1 1 1 1 1 1 1 1 1 1 1 1 1 1 1 1 1 1 1 1 1 1 1 1 1 1 1 1 1 1 1 1 1 1 1 1 1 1 1 1 1 1 1 1 1 1 1 1 1 1 1 1 1 1 1 1 1 1 1 1 1 1 1 1 1 1 1 1 1 1 1 1 1 1 1 1 1 1 1 1 1 1 1 1 1 1 1 1 1 1 0.999999 0.999998 0.999994 0.999984 0.999961 0.99991 0.999807 0.999613 0.999273 0.998718 0.997873 0.996672 0.995072 0.993066 0.990689 0.988016 0.985148 0.982193 0.979254 0.976413 0.97372 0.971198 0.968843 0.966632 0.964534 0.962516 0.960549 0.958609 0.956681 0.954754 0.952821 0.950874 0.948908 0.946916 0.944891 0.942822 0.940701 0.938516 0.936251 0.933888 0.931407 0.928784 0.925977 0.922913 0.919555 0.915935 0.911713 0.906138 0.900159 0.895833 0.885671 0.868416 0.868416 
1.05269 1.08839 1.1012 1.08371 1.08368 1.08911 1.08933 1.08821 1.08812 1.0883 1.08814 1.08794 1.08772 1.08757 1.08734 1.08717 1.08694 1.08676 1.08652 1.08632 1.08607 1.08584 1.08557 1.0853 1.085 1.08467 1.08431 1.08391 1.08346 1.08296 1.08237 1.08163 1.08065 1.07927 1.07728 1.07449 1.07066 1.06551 1.05879 1.05042 1.04073 1.03062 1.02127 1.01361 1.00804 1.00439 1.00223 1.00105 1.00046 1.00019 1.00007 1.00003 1.00001 1 1 1 1 1 1 1 1 1 1 1 1 1 1 1 1 1 1 1 1 1 1 1 1 1 1 1 1 1 1 1 1 1 1 1 1 1 1 1 1 1 1 1 1 1 1 1 1 1 1 1 1 1 1 1 1 1 1 1 1 1 1 1 1 1 1 1 1 1 1 1 1 1 1 1 1 1 1 1 1 1 1 1 1 1 1 1 1 1 1 1 1 1 1 1 1 1 1 1 1 1 1 1 1 1 1 1 1 1 1 1 1 1 1 1 1 1 1 1 1 1 1 1 1 1 1 1 1 1 1 1 1 1 1 1 1 1 1 1 1 1 1 1 1 1 1 1 1 1 1 0.999999 0.999998 0.999994 0.999983 0.999958 0.999904 0.999795 0.99959 0.999234 0.998657 0.997786 0.996558 0.994935 0.992915 0.990539 0.987882 0.985044 0.982128 0.979232 0.976428 0.973766 0.971265 0.968921 0.966713 0.964613 0.96259 0.960616 0.958671 0.956738 0.954808 0.952871 0.950922 0.948954 0.946961 0.944935 0.942867 0.940748 0.938566 0.936307 0.933957 0.931491 0.928884 0.926118 0.923157 0.919866 0.916174 0.912365 0.908209 0.901798 0.894139 0.890393 0.885804 0.885804 
1.09204 1.09176 1.08422 1.08435 1.08943 1.08856 1.08744 1.08791 1.08823 1.08806 1.08782 1.08773 1.08754 1.0874 1.08716 1.08701 1.08677 1.0866 1.08636 1.08616 1.0859 1.08567 1.08539 1.08512 1.0848 1.08446 1.08408 1.08366 1.08319 1.08265 1.08201 1.0812 1.08012 1.07864 1.0766 1.07387 1.07026 1.06556 1.05943 1.05164 1.04236 1.03234 1.02278 1.01476 1.00881 1.00485 1.00248 1.00118 1.00052 1.00021 1.00008 1.00003 1.00001 1 1 1 1 1 1 1 1 1 1 1 1 1 1 1 1 1 1 1 1 1 1 1 1 1 1 1 1 1 1 1 1 1 1 1 1 1 1 1 1 1 1 1 1 1 1 1 1 1 1 1 1 1 1 1 1 1 1 1 1 1 1 1 1 1 1 1 1 1 1 1 1 1 1 1 1 1 1 1 1 1 1 1 1 1 1 1 1 1 1 1 1 1 1 1 1 1 1 1 1 1 1 1 1 1 1 1 1 1 1 1 1 1 1 1 1 1 1 1 1 1 1 1 1 1 1 1 1 1 1 1 1 1 1 1 1 1 1 1 1 1 1 1 1 1 1 1 1 1 1 0.999999 0.999998 0.999993 0.999982 0.999957 0.999901 0.999788 0.999578 0.999214 0.998626 0.997742 0.9965 0.994866 0.992843 0.990474 0.987836 0.985027 0.982148 0.979288 0.976517 0.973879 0.971393 0.969054 0.966845 0.964739 0.962709 0.960729 0.958779 0.956843 0.954911 0.952974 0.951025 0.949059 0.947068 0.945045 0.942983 0.940872 0.938702 0.936459 0.93413 0.931699 0.92914 0.926419 0.923534 0.920471 0.917037 0.91313 0.909342 0.905439 0.899594 0.894273 0.890805 0.890805 
1.09388 1.087 1.08507 1.08968 1.08823 1.08661 1.08765 1.08814 1.08782 1.08766 1.08761 1.08755 1.08733 1.0872 1.08698 1.08684 1.0866 1.08644 1.08618 1.08599 1.08573 1.08549 1.0852 1.08492 1.08459 1.08424 1.08384 1.08341 1.0829 1.08233 1.08163 1.08074 1.07958 1.07802 1.07596 1.0733 1.06995 1.06567 1.0601 1.05287 1.04396 1.03403 1.02427 1.01589 1.00956 1.0053 1.00272 1.0013 1.00058 1.00024 1.00009 1.00003 1.00001 1 1 1 1 1 1 1 1 1 1 1 1 1 1 1 1 1 1 1 1 1 1 1 1 1 1 1 1 1 1 1 1 1 1 1 1 1 1 1 1 1 1 1 1 1 1 1 1 1 1 1 1 1 1 1 1 1 1 1 1 1 1 1 1 1 1 1 1 1 1 1 1 1 1 1 1 1 1 1 1 1 1 1 1 1 1 1 1 1 1 1 1 1 1 1 1 1 1 1 1 1 1 1 1 1 1 1 1 1 1 1 1 1 1 1 1 1 1 1 1 1 1 1 1 1 1 1 1 1 1 1 1 1 1 1 1 1 1 1 1 1 1 1 1 1 1 1 1 1 1 0.999999 0.999998 0.999993 0.999982 0.999957 0.999901 0.999788 0.999578 0.999212 0.998623 0.997737 0.996495 0.994864 0.992848 0.990493 0.987876 0.985094 0.982245 0.979416 0.976671 0.974052 0.971576 0.969241 0.967029 0.964917 0.96288 0.960893 0.958938 0.956998 0.955064 0.953127 0.95118 0.949216 0.94723 0.945214 0.943161 0.941062 0.938908 0.936688 0.934387 0.931992 0.929494 0.926859 0.924041 0.921065 0.917979 0.914509 0.910483 0.906735 0.903026 0.898687 0.894975 0.894975 
1.08513 1.08748 1.08895 1.08779 1.08651 1.08764 1.08791 1.08747 1.08741 1.08754 1.08741 1.08729 1.0871 1.08701 1.08679 1.08665 1.08641 1.08626 1.086 1.08581 1.08554 1.0853 1.085 1.08472 1.08437 1.08401 1.08359 1.08313 1.0826 1.08198 1.08122 1.08027 1.07903 1.07742 1.07535 1.07281 1.06971 1.06585 1.06082 1.05411 1.04555 1.03569 1.02572 1.01698 1.01028 1.00573 1.00295 1.00141 1.00063 1.00026 1.0001 1.00004 1.00001 1 1 1 1 1 1 1 1 1 1 1 1 1 1 1 1 1 1 1 1 1 1 1 1 1 1 1 1 1 1 1 1 1 1 1 1 1 1 1 1 1 1 1 1 1 1 1 1 1 1 1 1 1 1 1 1 1 1 1 1 1 1 1 1 1 1 1 1 1 1 1 1 1 1 1 1 1 1 1 1 1 1 1 1 1 1 1 1 1 1 1 1 1 1 1 1 1 1 1 1 1 1 1 1 1 1 1 1 1 1 1 1 1 1 1 1 1 1 1 1 1 1 1 1 1 1 1 1 1 1 1 1 1 1 1 1 1 1 1 1 1 1 1 1 1 1 1 1 1 1 0.999999 0.999998 0.999994 0.999983 0.999958 0.999904 0.999794 0.999587 0.999228 0.998646 0.997771 0.996542 0.994925 0.992928 0.990593 0.988 0.985243 0.98242 0.979615 0.97689 0.974284 0.971815 0.969479 0.967263 0.965145 0.9631 0.961107 0.959146 0.957204 0.955268 0.953332 0.951386 0.949426 0.947446 0.945438 0.943395 0.94131 0.939174 0.936979 0.934712 0.93236 0.929908 0.927356 0.924673 0.921796 0.918776 0.915712 0.912319 0.908617 0.905106 0.90148 0.898003 0.898003 
1.08746 1.08763 1.08755 1.08688 1.08747 1.08768 1.08718 1.08724 1.08736 1.0873 1.08712 1.08707 1.0869 1.0868 1.08658 1.08646 1.08622 1.08607 1.08581 1.08562 1.08534 1.0851 1.08479 1.0845 1.08414 1.08376 1.08332 1.08284 1.08228 1.08162 1.08081 1.07979 1.07849 1.07683 1.07479 1.07237 1.06954 1.0661 1.06158 1.05537 1.04714 1.03732 1.02715 1.01805 1.01098 1.00614 1.00317 1.00152 1.00067 1.00028 1.00011 1.00004 1.00001 1 1 1 1 1 1 1 1 1 1 1 1 1 1 1 1 1 1 1 1 1 1 1 1 1 1 1 1 1 1 1 1 1 1 1 1 1 1 1 1 1 1 1 1 1 1 1 1 1 1 1 1 1 1 1 1 1 1 1 1 1 1 1 1 1 1 1 1 1 1 1 1 1 1 1 1 1 1 1 1 1 1 1 1 1 1 1 1 1 1 1 1 1 1 1 1 1 1 1 1 1 1 1 1 1 1 1 1 1 1 1 1 1 1 1 1 1 1 1 1 1 1 1 1 1 1 1 1 1 1 1 1 1 1 1 1 1 1 1 1 1 1 1 1 1 1 1 1 1 1 0.999999 0.999998 0.999994 0.999984 0.999961 0.999909 0.999804 0.999605 0.999258 0.998693 0.99784 0.996636 0.995048 0.993079 0.990773 0.988207 0.985475 0.982674 0.979886 0.977175 0.974577 0.97211 0.969771 0.967549 0.965422 0.96337 0.96137 0.959404 0.957459 0.955522 0.953586 0.951643 0.949687 0.947713 0.945713 0.943682 0.941613 0.939497 0.937326 0.935092 0.932786 0.93039 0.927893 0.925305 0.922601 0.919706 0.916697 0.913657 0.9104 0.907041 0.903753 0.900557 0.900557 
1.08798 1.08718 1.08698 1.08725 1.0874 1.08704 1.08706 1.08722 1.08708 1.087 1.08691 1.08686 1.08668 1.08658 1.08637 1.08626 1.08602 1.08587 1.08561 1.08542 1.08513 1.08489 1.08457 1.08426 1.08389 1.0835 1.08304 1.08253 1.08194 1.08124 1.08038 1.07931 1.07795 1.07627 1.07427 1.072 1.06945 1.06643 1.0624 1.05665 1.04872 1.03893 1.02853 1.01908 1.01165 1.00653 1.00338 1.00162 1.00072 1.0003 1.00011 1.00004 1.00001 1 1 1 1 1 1 1 1 1 1 1 1 1 1 1 1 1 1 1 1 1 1 1 1 1 1 1 1 1 1 1 1 1 1 1 1 1 1 1 1 1 1 1 1 1 1 1 1 1 1 1 1 1 1 1 1 1 1 1 1 1 1 1 1 1 1 1 1 1 1 1 1 1 1 1 1 1 1 1 1 1 1 1 1 1 1 1 1 1 1 1 1 1 1 1 1 1 1 1 1 1 1 1 1 1 1 1 1 1 1 1 1 1 1 1 1 1 1 1 1 1 1 1 1 1 1 1 1 1 1 1 1 1 1 1 1 1 1 1 1 1 1 1 1 1 1 1 1 1 1 0.999999 0.999998 0.999995 0.999986 0.999964 0.999916 0.999818 0.999631 0.999301 0.998761 0.99794 0.996774 0.995226 0.993298 0.991029 0.988495 0.985789 0.983008 0.980233 0.977529 0.974933 0.972464 0.970119 0.967888 0.965752 0.96369 0.961683 0.959712 0.957763 0.955825 0.95389 0.951949 0.949998 0.94803 0.946039 0.94402 0.941966 0.939871 0.937726 0.935523 0.933256 0.930919 0.928492 0.925967 0.923363 0.920657 0.9178 0.914868 0.911876 0.908769 0.905664 0.902664 0.902664 
1.08698 1.08702 1.08708 1.08709 1.08692 1.08692 1.08701 1.08692 1.08681 1.08681 1.0867 1.08662 1.08645 1.08637 1.08616 1.08605 1.08581 1.08566 1.08539 1.0852 1.08491 1.08466 1.08433 1.08402 1.08363 1.08322 1.08274 1.08221 1.08158 1.08084 1.07994 1.07881 1.07741 1.07573 1.07379 1.07169 1.06944 1.06684 1.06329 1.05797 1.05029 1.04052 1.02989 1.02007 1.01229 1.0069 1.00357 1.00171 1.00076 1.00031 1.00012 1.00004 1.00001 1 1 1 1 1 1 1 1 1 1 1 1 1 1 1 1 1 1 1 1 1 1 1 1 1 1 1 1 1 1 1 1 1 1 1 1 1 1 1 1 1 1 1 1 1 1 1 1 1 1 1 1 1 1 1 1 1 1 1 1 1 1 1 1 1 1 1 1 1 1 1 1 1 1 1 1 1 1 1 1 1 1 1 1 1 1 1 1 1 1 1 1 1 1 1 1 1 1 1 1 1 1 1 1 1 1 1 1 1 1 1 1 1 1 1 1 1 1 1 1 1 1 1 1 1 1 1 1 1 1 1 1 1 1 1 1 1 1 1 1 1 1 1 1 1 1 1 1 1 1 1 0.999998 0.999995 0.999987 0.999968 0.999925 0.999835 0.999662 0.999355 0.998847 0.998067 0.99695 0.995456 0.99358 0.991359 0.988864 0.986186 0.983423 0.980658 0.977956 0.975357 0.97288 0.970525 0.968283 0.966135 0.964063 0.962047 0.96007 0.958118 0.956179 0.954244 0.952306 0.950359 0.948397 0.946416 0.944409 0.94237 0.940294 0.938174 0.936004 0.933774 0.931481 0.929122 0.926677 0.924143 0.92154 0.918847 0.916049 0.913199 0.910297 0.907362 0.904497 0.904497 
1.08692 1.08686 1.08684 1.08679 1.08676 1.0868 1.08673 1.08667 1.08663 1.0866 1.08645 1.0864 1.08623 1.08615 1.08594 1.08583 1.08559 1.08544 1.08517 1.08497 1.08468 1.08442 1.08409 1.08376 1.08336 1.08293 1.08243 1.08188 1.08122 1.08043 1.07948 1.07831 1.07688 1.0752 1.07336 1.07145 1.06952 1.06733 1.06423 1.05932 1.05187 1.04207 1.0312 1.02102 1.01289 1.00724 1.00374 1.00179 1.00079 1.00033 1.00013 1.00004 1.00001 1 1 1 1 1 1 1 1 1 1 1 1 1 1 1 1 1 1 1 1 1 1 1 1 1 1 1 1 1 1 1 1 1 1 1 1 1 1 1 1 1 1 1 1 1 1 1 1 1 1 1 1 1 1 1 1 1 1 1 1 1 1 1 1 1 1 1 1 1 1 1 1 1 1 1 1 1 1 1 1 1 1 1 1 1 1 1 1 1 1 1 1 1 1 1 1 1 1 1 1 1 1 1 1 1 1 1 1 1 1 1 1 1 1 1 1 1 1 1 1 1 1 1 1 1 1 1 1 1 1 1 1 1 1 1 1 1 1 1 1 1 1 1 1 1 1 1 1 1 1 1 0.999999 0.999996 0.999989 0.999972 0.999934 0.999854 0.999697 0.999416 0.998946 0.998215 0.997159 0.99573 0.99392 0.991758 0.98931 0.986666 0.983921 0.981163 0.978459 0.975852 0.973363 0.970994 0.968737 0.966576 0.964492 0.962466 0.960481 0.958524 0.956583 0.954648 0.952712 0.95077 0.948815 0.946842 0.944847 0.942824 0.940766 0.93867 0.936529 0.934338 0.932088 0.929777 0.927404 0.924954 0.922429 0.919842 0.917178 0.914447 0.911676 0.90888 0.906129 0.906129 
1.0868 1.08661 1.08659 1.08659 1.08659 1.08656 1.08649 1.08648 1.08641 1.08635 1.08623 1.08617 1.086 1.08592 1.08571 1.0856 1.08536 1.08521 1.08494 1.08474 1.08443 1.08417 1.08382 1.08348 1.08307 1.08263 1.08211 1.08152 1.08083 1.08001 1.07901 1.07779 1.07635 1.07471 1.07298 1.0713 1.0697 1.06792 1.06526 1.06071 1.05345 1.0436 1.03246 1.02192 1.01346 1.00755 1.0039 1.00186 1.00082 1.00034 1.00013 1.00005 1.00002 1 1 1 1 1 1 1 1 1 1 1 1 1 1 1 1 1 1 1 1 1 1 1 1 1 1 1 1 1 1 1 1 1 1 1 1 1 1 1 1 1 1 1 1 1 1 1 1 1 1 1 1 1 1 1 1 1 1 1 1 1 1 1 1 1 1 1 1 1 1 1 1 1 1 1 1 1 1 1 1 1 1 1 1 1 1 1 1 1 1 1 1 1 1 1 1 1 1 1 1 1 1 1 1 1 1 1 1 1 1 1 1 1 1 1 1 1 1 1 1 1 1 1 1 1 1 1 1 1 1 1 1 1 1 1 1 1 1 1 1 1 1 1 1 1 1 1 1 1 1 1 0.999999 0.999997 0.999991 0.999977 0.999944 0.999873 0.999735 0.999482 0.999054 0.99838 0.997393 0.996043 0.994311 0.99222 0.98983 0.987226 0.984504 0.981753 0.979044 0.976424 0.973917 0.97153 0.969255 0.967076 0.964977 0.96294 0.960947 0.958984 0.95704 0.955105 0.953171 0.951232 0.949284 0.94732 0.945336 0.943326 0.941288 0.939214 0.9371 0.934942 0.932734 0.93047 0.92815 0.925772 0.923326 0.920819 0.918255 0.915633 0.912967 0.91028 0.907621 0.907621 
1.08652 1.08639 1.0864 1.08638 1.08635 1.08632 1.08629 1.08626 1.08616 1.08612 1.086 1.08594 1.08576 1.08568 1.08547 1.08536 1.08512 1.08497 1.08469 1.08449 1.08418 1.08391 1.08355 1.0832 1.08277 1.08231 1.08176 1.08115 1.08042 1.07956 1.07852 1.07727 1.07583 1.07425 1.07267 1.07124 1.06998 1.06861 1.06636 1.06213 1.05502 1.04509 1.03367 1.02277 1.01398 1.00784 1.00404 1.00193 1.00085 1.00035 1.00013 1.00005 1.00002 1 1 1 1 1 1 1 1 1 1 1 1 1 1 1 1 1 1 1 1 1 1 1 1 1 1 1 1 1 1 1 1 1 1 1 1 1 1 1 1 1 1 1 1 1 1 1 1 1 1 1 1 1 1 1 1 1 1 1 1 1 1 1 1 1 1 1 1 1 1 1 1 1 1 1 1 1 1 1 1 1 1 1 1 1 1 1 1 1 1 1 1 1 1 1 1 1 1 1 1 1 1 1 1 1 1 1 1 1 1 1 1 1 1 1 1 1 1 1 1 1 1 1 1 1 1 1 1 1 1 1 1 1 1 1 1 1 1 1 1 1 1 1 1 1 1 1 1 1 1 1 0.999999 0.999997 0.999993 0.999981 0.999953 0.999893 0.999773 0.99955 0.999167 0.998555 0.997646 0.996384 0.994744 0.992738 0.990418 0.987864 0.985171 0.982429 0.979713 0.977077 0.974549 0.972138 0.96984 0.967641 0.965525 0.963473 0.961469 0.959499 0.957551 0.955615 0.953682 0.951747 0.949804 0.947848 0.945875 0.94388 0.941858 0.939805 0.937716 0.935588 0.933417 0.931198 0.928926 0.926604 0.924227 0.921793 0.919307 0.916773 0.914197 0.911597 0.909014 0.909014 
1.0863 1.08617 1.08617 1.08615 1.08612 1.0861 1.08606 1.08602 1.08593 1.08589 1.08576 1.0857 1.08552 1.08544 1.08523 1.08512 1.08487 1.08472 1.08444 1.08423 1.08391 1.08363 1.08326 1.08289 1.08245 1.08197 1.0814 1.08076 1.08 1.07909 1.07801 1.07674 1.07532 1.07383 1.07244 1.07128 1.07039 1.06941 1.06754 1.06359 1.05659 1.04653 1.03481 1.02356 1.01445 1.00809 1.00416 1.00198 1.00087 1.00036 1.00014 1.00005 1.00002 1 1 1 1 1 1 1 1 1 1 1 1 1 1 1 1 1 1 1 1 1 1 1 1 1 1 1 1 1 1 1 1 1 1 1 1 1 1 1 1 1 1 1 1 1 1 1 1 1 1 1 1 1 1 1 1 1 1 1 1 1 1 1 1 1 1 1 1 1 1 1 1 1 1 1 1 1 1 1 1 1 1 1 1 1 1 1 1 1 1 1 1 1 1 1 1 1 1 1 1 1 1 1 1 1 1 1 1 1 1 1 1 1 1 1 1 1 1 1 1 1 1 1 1 1 1 1 1 1 1 1 1 1 1 1 1 1 1 1 1 1 1 1 1 1 1 1 1 1 1 1 0.999999 0.999998 0.999994 0.999985 0.999962 0.999912 0.99981 0.999617 0.999281 0.998735 0.997909 0.996746 0.99521 0.993303 0.991068 0.988577 0.985921 0.983193 0.980472 0.977817 0.975263 0.972825 0.970499 0.968276 0.966138 0.964069 0.962053 0.960073 0.958119 0.956181 0.954248 0.952316 0.950378 0.94843 0.946466 0.944484 0.942478 0.940444 0.938379 0.936279 0.934139 0.931959 0.929733 0.927459 0.925138 0.922768 0.92035 0.917888 0.915386 0.912861 0.910342 0.910342 
1.08607 1.08593 1.08592 1.08591 1.08589 1.08586 1.08581 1.08578 1.08569 1.08564 1.08551 1.08545 1.08527 1.08519 1.08498 1.08486 1.08461 1.08445 1.08417 1.08395 1.08363 1.08334 1.08295 1.08257 1.08211 1.08161 1.08102 1.08035 1.07954 1.0786 1.07748 1.07621 1.07484 1.07348 1.0723 1.07145 1.07092 1.07032 1.06879 1.06508 1.05813 1.04792 1.03589 1.02428 1.01488 1.00831 1.00427 1.00203 1.00089 1.00037 1.00014 1.00005 1.00002 1 1 1 1 1 1 1 1 1 1 1 1 1 1 1 1 1 1 1 1 1 1 1 1 1 1 1 1 1 1 1 1 1 1 1 1 1 1 1 1 1 1 1 1 1 1 1 1 1 1 1 1 1 1 1 1 1 1 1 1 1 1 1 1 1 1 1 1 1 1 1 1 1 1 1 1 1 1 1 1 1 1 1 1 1 1 1 1 1 1 1 1 1 1 1 1 1 1 1 1 1 1 1 1 1 1 1 1 1 1 1 1 1 1 1 1 1 1 1 1 1 1 1 1 1 1 1 1 1 1 1 1 1 1 1 1 1 1 1 1 1 1 1 1 1 1 1 1 1 1 1 1 0.999999 0.999996 0.999988 0.99997 0.999929 0.999844 0.999682 0.999392 0.998913 0.998176 0.997118 0.995698 0.993905 0.991771 0.989358 0.986753 0.984047 0.981325 0.978651 0.976068 0.973597 0.971238 0.968985 0.966822 0.964733 0.9627 0.960709 0.958748 0.956805 0.954872 0.952941 0.951008 0.949066 0.947112 0.945141 0.943149 0.941133 0.93909 0.937015 0.934905 0.932758 0.930571 0.928342 0.926069 0.923753 0.921394 0.918992 0.916555 0.914092 0.91163 0.91163 
1.08583 1.08568 1.08568 1.08566 1.08564 1.08562 1.08557 1.08553 1.08544 1.08539 1.08526 1.08519 1.08501 1.08493 1.08471 1.08459 1.08434 1.08418 1.08388 1.08366 1.08333 1.08303 1.08263 1.08224 1.08175 1.08123 1.08061 1.0799 1.07906 1.07808 1.07695 1.0757 1.0744 1.07321 1.07228 1.07176 1.07159 1.07135 1.07012 1.06659 1.05963 1.04923 1.03689 1.02494 1.01525 1.0085 1.00436 1.00206 1.00091 1.00037 1.00014 1.00005 1.00002 1 1 1 1 1 1 1 1 1 1 1 1 1 1 1 1 1 1 1 1 1 1 1 1 1 1 1 1 1 1 1 1 1 1 1 1 1 1 1 1 1 1 1 1 1 1 1 1 1 1 1 1 1 1 1 1 1 1 1 1 1 1 1 1 1 1 1 1 1 1 1 1 1 1 1 1 1 1 1 1 1 1 1 1 1 1 1 1 1 1 1 1 1 1 1 1 1 1 1 1 1 1 1 1 1 1 1 1 1 1 1 1 1 1 1 1 1 1 1 1 1 1 1 1 1 1 1 1 1 1 1 1 1 1 1 1 1 1 1 1 1 1 1 1 1 1 1 1 1 1 1 1 0.999999 0.999997 0.999991 0.999977 0.999944 0.999876 0.999741 0.999497 0.999085 0.998439 0.997492 0.996197 0.994532 0.992515 0.990198 0.987659 0.984988 0.982272 0.979583 0.976971 0.974462 0.972066 0.969778 0.967585 0.96547 0.963417 0.961412 0.95944 0.957491 0.955555 0.953625 0.951694 0.949758 0.947812 0.945852 0.943874 0.941874 0.93985 0.937798 0.935715 0.933598 0.931446 0.929256 0.927027 0.924757 0.922448 0.9201 0.917718 0.915309 0.912897 0.912897 
1.08558 1.08542 1.08542 1.0854 1.08538 1.08536 1.08531 1.08527 1.08518 1.08512 1.08499 1.08492 1.08474 1.08465 1.08443 1.08431 1.08405 1.08389 1.08359 1.08335 1.08301 1.0827 1.08229 1.08188 1.08137 1.08083 1.08018 1.07943 1.07855 1.07754 1.0764 1.0752 1.07403 1.07304 1.0724 1.07222 1.07241 1.07249 1.07151 1.0681 1.06109 1.05047 1.0378 1.02552 1.01558 1.00867 1.00443 1.00209 1.00092 1.00037 1.00014 1.00005 1.00002 1 1 1 1 1 1 1 1 1 1 1 1 1 1 1 1 1 1 1 1 1 1 1 1 1 1 1 1 1 1 1 1 1 1 1 1 1 1 1 1 1 1 1 1 1 1 1 1 1 1 1 1 1 1 1 1 1 1 1 1 1 1 1 1 1 1 1 1 1 1 1 1 1 1 1 1 1 1 1 1 1 1 1 1 1 1 1 1 1 1 1 1 1 1 1 1 1 1 1 1 1 1 1 1 1 1 1 1 1 1 1 1 1 1 1 1 1 1 1 1 1 1 1 1 1 1 1 1 1 1 1 1 1 1 1 1 1 1 1 1 1 1 1 1 1 1 1 1 1 1 1 1 0.999999 0.999998 0.999993 0.999983 0.999958 0.999904 0.999795 0.999594 0.999247 0.99869 0.997858 0.996696 0.995171 0.993288 0.991085 0.988631 0.986012 0.983315 0.980617 0.977977 0.97543 0.972991 0.970662 0.968433 0.966287 0.964211 0.962186 0.960201 0.958243 0.956302 0.954371 0.952442 0.950511 0.948572 0.946621 0.944655 0.94267 0.940664 0.938632 0.936573 0.934484 0.932363 0.930207 0.928016 0.925788 0.923524 0.921223 0.918888 0.916527 0.914159 0.914159 
1.08531 1.08514 1.08514 1.08513 1.08511 1.08508 1.08503 1.08499 1.0849 1.08484 1.08471 1.08464 1.08446 1.08437 1.08414 1.08402 1.08375 1.08358 1.08327 1.08303 1.08267 1.08235 1.08192 1.08149 1.08096 1.08039 1.0797 1.07892 1.07801 1.07699 1.07588 1.07476 1.07375 1.07301 1.07268 1.07284 1.07337 1.07374 1.07295 1.0696 1.06249 1.05162 1.03863 1.02603 1.01586 1.0088 1.00449 1.00212 1.00093 1.00038 1.00014 1.00005 1.00002 1 1 1 1 1 1 1 1 1 1 1 1 1 1 1 1 1 1 1 1 1 1 1 1 1 1 1 1 1 1 1 1 1 1 1 1 1 1 1 1 1 1 1 1 1 1 1 1 1 1 1 1 1 1 1 1 1 1 1 1 1 1 1 1 1 1 1 1 1 1 1 1 1 1 1 1 1 1 1 1 1 1 1 1 1 1 1 1 1 1 1 1 1 1 1 1 1 1 1 1 1 1 1 1 1 1 1 1 1 1 1 1 1 1 1 1 1 1 1 1 1 1 1 1 1 1 1 1 1 1 1 1 1 1 1 1 1 1 1 1 1 1 1 1 1 1 1 1 1 1 1 1 1 0.999998 0.999995 0.999988 0.999969 0.999927 0.999842 0.99968 0.999394 0.998925 0.998207 0.997182 0.995808 0.994074 0.992005 0.989658 0.987111 0.984449 0.981755 0.979092 0.976507 0.974023 0.971648 0.969376 0.967194 0.965088 0.96304 0.961037 0.959067 0.957118 0.955183 0.953254 0.951326 0.949392 0.94745 0.945495 0.943524 0.941533 0.939521 0.937484 0.93542 0.933326 0.931202 0.929045 0.926854 0.924629 0.922369 0.920078 0.91776 0.915432 0.915432 
1.08503 1.08485 1.08485 1.08484 1.08482 1.0848 1.08474 1.0847 1.08461 1.08455 1.08441 1.08434 1.08416 1.08406 1.08383 1.0837 1.08343 1.08325 1.08293 1.08268 1.08231 1.08197 1.08153 1.08108 1.08053 1.07992 1.0792 1.07838 1.07744 1.07643 1.07538 1.0744 1.0736 1.07314 1.07314 1.07364 1.07447 1.07508 1.07442 1.07106 1.06381 1.05268 1.03936 1.02647 1.01609 1.00891 1.00454 1.00214 1.00093 1.00038 1.00014 1.00005 1.00002 1 1 1 1 1 1 1 1 1 1 1 1 1 1 1 1 1 1 1 1 1 1 1 1 1 1 1 1 1 1 1 1 1 1 1 1 1 1 1 1 1 1 1 1 1 1 1 1 1 1 1 1 1 1 1 1 1 1 1 1 1 1 1 1 1 1 1 1 1 1 1 1 1 1 1 1 1 1 1 1 1 1 1 1 1 1 1 1 1 1 1 1 1 1 1 1 1 1 1 1 1 1 1 1 1 1 1 1 1 1 1 1 1 1 1 1 1 1 1 1 1 1 1 1 1 1 1 1 1 1 1 1 1 1 1 1 1 1 1 1 1 1 1 1 1 1 1 1 1 1 1 1 1 0.999999 0.999997 0.999991 0.999978 0.999947 0.999881 0.999754 0.999524 0.999137 0.998531 0.997644 0.996427 0.994857 0.992942 0.990725 0.988273 0.985668 0.982993 0.98032 0.977701 0.975172 0.972747 0.970426 0.968201 0.966058 0.963981 0.961956 0.959969 0.958009 0.956067 0.954136 0.952208 0.950279 0.948344 0.946398 0.944439 0.942463 0.940468 0.938451 0.93641 0.934342 0.932245 0.930119 0.927962 0.925772 0.92355 0.921298 0.919019 0.916728 0.916728 
1.08473 1.08454 1.08454 1.08453 1.08451 1.08449 1.08443 1.08439 1.08429 1.08424 1.0841 1.08402 1.08383 1.08374 1.0835 1.08337 1.08309 1.0829 1.08257 1.08231 1.08192 1.08157 1.08111 1.08063 1.08005 1.07941 1.07865 1.07781 1.07687 1.0759 1.07495 1.07414 1.0736 1.07345 1.07378 1.0746 1.07569 1.07648 1.07589 1.07248 1.06504 1.05362 1.03999 1.02684 1.01628 1.009 1.00457 1.00215 1.00094 1.00038 1.00014 1.00005 1.00002 1 1 1 1 1 1 1 1 1 1 1 1 1 1 1 1 1 1 1 1 1 1 1 1 1 1 1 1 1 1 1 1 1 1 1 1 1 1 1 1 1 1 1 1 1 1 1 1 1 1 1 1 1 1 1 1 1 1 1 1 1 1 1 1 1 1 1 1 1 1 1 1 1 1 1 1 1 1 1 1 1 1 1 1 1 1 1 1 1 1 1 1 1 1 1 1 1 1 1 1 1 1 1 1 1 1 1 1 1 1 1 1 1 1 1 1 1 1 1 1 1 1 1 1 1 1 1 1 1 1 1 1 1 1 1 1 1 1 1 1 1 1 1 1 1 1 1 1 1 1 1 1 1 0.999999 0.999998 0.999994 0.999984 0.999962 0.999913 0.999816 0.999636 0.999325 0.998825 0.998074 0.997017 0.99562 0.993876 0.991811 0.989481 0.986959 0.984326 0.981658 0.979017 0.976446 0.973969 0.971595 0.96932 0.967133 0.965021 0.962967 0.960958 0.958983 0.957031 0.955094 0.953165 0.951237 0.949307 0.947369 0.945421 0.943458 0.941479 0.93948 0.937459 0.935415 0.933344 0.931246 0.929119 0.926963 0.924775 0.922559 0.920316 0.918059 0.918059 
1.08441 1.0842 1.0842 1.08419 1.08418 1.08415 1.0841 1.08406 1.08396 1.0839 1.08376 1.08368 1.08349 1.08339 1.08315 1.083 1.08272 1.08252 1.08218 1.0819 1.0815 1.08113 1.08065 1.08014 1.07953 1.07885 1.07807 1.07722 1.07631 1.07542 1.07462 1.07404 1.07378 1.07396 1.07462 1.07572 1.07703 1.07793 1.07734 1.07381 1.06615 1.05444 1.04052 1.02715 1.01643 1.00907 1.0046 1.00216 1.00094 1.00038 1.00014 1.00005 1.00002 1 1 1 1 1 1 1 1 1 1 1 1 1 1 1 1 1 1 1 1 1 1 1 1 1 1 1 1 1 1 1 1 1 1 1 1 1 1 1 1 1 1 1 1 1 1 1 1 1 1 1 1 1 1 1 1 1 1 1 1 1 1 1 1 1 1 1 1 1 1 1 1 1 1 1 1 1 1 1 1 1 1 1 1 1 1 1 1 1 1 1 1 1 1 1 1 1 1 1 1 1 1 1 1 1 1 1 1 1 1 1 1 1 1 1 1 1 1 1 1 1 1 1 1 1 1 1 1 1 1 1 1 1 1 1 1 1 1 1 1 1 1 1 1 1 1 1 1 1 1 1 1 1 1 0.999999 0.999996 0.99999 0.999974 0.999939 0.999867 0.999729 0.999486 0.999083 0.998462 0.997564 0.996346 0.994787 0.992897 0.990715 0.988304 0.985741 0.983102 0.980454 0.977851 0.975326 0.972896 0.970566 0.968328 0.966172 0.964082 0.962046 0.96005 0.958083 0.956136 0.954202 0.952274 0.950346 0.948414 0.946475 0.944524 0.942559 0.940577 0.938575 0.936552 0.934505 0.932434 0.930335 0.928209 0.926054 0.923871 0.921663 0.919439 0.919439 
1.08407 1.08383 1.08383 1.08382 1.08381 1.08379 1.08374 1.0837 1.0836 1.08354 1.08339 1.08331 1.08312 1.08301 1.08276 1.08261 1.08232 1.08211 1.08176 1.08147 1.08105 1.08066 1.08014 1.07961 1.07896 1.07826 1.07746 1.07664 1.0758 1.07504 1.07444 1.07413 1.07418 1.07468 1.07564 1.07699 1.07844 1.07939 1.07874 1.07505 1.06715 1.05515 1.04097 1.02739 1.01655 1.00912 1.00462 1.00217 1.00094 1.00038 1.00014 1.00005 1.00002 1 1 1 1 1 1 1 1 1 1 1 1 1 1 1 1 1 1 1 1 1 1 1 1 1 1 1 1 1 1 1 1 1 1 1 1 1 1 1 1 1 1 1 1 1 1 1 1 1 1 1 1 1 1 1 1 1 1 1 1 1 1 1 1 1 1 1 1 1 1 1 1 1 1 1 1 1 1 1 1 1 1 1 1 1 1 1 1 1 1 1 1 1 1 1 1 1 1 1 1 1 1 1 1 1 1 1 1 1 1 1 1 1 1 1 1 1 1 1 1 1 1 1 1 1 1 1 1 1 1 1 1 1 1 1 1 1 1 1 1 1 1 1 1 1 1 1 1 1 1 1 1 1 1 0.999999 0.999998 0.999993 0.999983 0.999958 0.999906 0.999805 0.999619 0.999304 0.998803 0.998058 0.99702 0.995655 0.993957 0.99195 0.989681 0.987219 0.984637 0.982007 0.979387 0.976823 0.97434 0.971952 0.969658 0.96745 0.965317 0.963245 0.961222 0.959234 0.957273 0.95533 0.953397 0.95147 0.949541 0.947608 0.945667 0.943715 0.941748 0.939764 0.937761 0.935737 0.93369 0.931618 0.929521 0.927397 0.925246 0.92307 0.920878 0.920878 
1.08368 1.08342 1.08342 1.08342 1.08341 1.0834 1.08335 1.0833 1.0832 1.08314 1.083 1.08291 1.08271 1.0826 1.08235 1.08219 1.08188 1.08166 1.0813 1.08099 1.08055 1.08013 1.07959 1.07903 1.07835 1.07764 1.07686 1.0761 1.07537 1.0748 1.07446 1.07444 1.07481 1.07562 1.07684 1.07836 1.0799 1.08083 1.08006 1.07617 1.06801 1.05575 1.04133 1.02758 1.01663 1.00915 1.00463 1.00217 1.00095 1.00038 1.00014 1.00005 1.00002 1 1 1 1 1 1 1 1 1 1 1 1 1 1 1 1 1 1 1 1 1 1 1 1 1 1 1 1 1 1 1 1 1 1 1 1 1 1 1 1 1 1 1 1 1 1 1 1 1 1 1 1 1 1 1 1 1 1 1 1 1 1 1 1 1 1 1 1 1 1 1 1 1 1 1 1 1 1 1 1 1 1 1 1 1 1 1 1 1 1 1 1 1 1 1 1 1 1 1 1 1 1 1 1 1 1 1 1 1 1 1 1 1 1 1 1 1 1 1 1 1 1 1 1 1 1 1 1 1 1 1 1 1 1 1 1 1 1 1 1 1 1 1 1 1 1 1 1 1 1 1 1 1 1 1 0.999999 0.999996 0.999989 0.999972 0.999936 0.999864 0.999727 0.999486 0.999094 0.998492 0.997629 0.996462 0.99497 0.993159 0.991063 0.988736 0.986245 0.983662 0.98105 0.978462 0.975935 0.973491 0.971138 0.968873 0.966689 0.964574 0.962515 0.9605 0.958519 0.956561 0.95462 0.952688 0.95076 0.948831 0.946898 0.944956 0.943002 0.941034 0.93905 0.937047 0.935024 0.932978 0.930909 0.928814 0.926694 0.924551 0.92239 0.92239 
1.08325 1.08295 1.08296 1.08297 1.08297 1.08296 1.08291 1.08286 1.08277 1.08271 1.08256 1.08247 1.08227 1.08215 1.08189 1.08173 1.08141 1.08118 1.0808 1.08047 1.08001 1.07956 1.07899 1.0784 1.07772 1.07703 1.0763 1.07565 1.0751 1.07476 1.0747 1.07499 1.07568 1.07676 1.07818 1.07982 1.08136 1.08221 1.08128 1.07716 1.06875 1.05624 1.04161 1.02772 1.0167 1.00918 1.00464 1.00217 1.00095 1.00038 1.00014 1.00005 1.00002 1 1 1 1 1 1 1 1 1 1 1 1 1 1 1 1 1 1 1 1 1 1 1 1 1 1 1 1 1 1 1 1 1 1 1 1 1 1 1 1 1 1 1 1 1 1 1 1 1 1 1 1 1 1 1 1 1 1 1 1 1 1 1 1 1 1 1 1 1 1 1 1 1 1 1 1 1 1 1 1 1 1 1 1 1 1 1 1 1 1 1 1 1 1 1 1 1 1 1 1 1 1 1 1 1 1 1 1 1 1 1 1 1 1 1 1 1 1 1 1 1 1 1 1 1 1 1 1 1 1 1 1 1 1 1 1 1 1 1 1 1 1 1 1 1 1 1 1 1 1 1 1 1 1 1 0.999999 0.999998 0.999993 0.999982 0.999958 0.999908 0.99981 0.999633 0.999334 0.998862 0.998164 0.997191 0.995912 0.994315 0.992418 0.99026 0.987897 0.985397 0.982825 0.980239 0.977684 0.975193 0.972782 0.970457 0.968216 0.966049 0.963947 0.961898 0.959889 0.957911 0.955956 0.954016 0.952084 0.950156 0.948227 0.946293 0.944351 0.942398 0.940431 0.938448 0.936447 0.934426 0.932383 0.930318 0.92823 0.926118 0.92399 0.92399 
1.08275 1.08241 1.08243 1.08246 1.08247 1.08246 1.08242 1.08238 1.08229 1.08223 1.08208 1.08199 1.08179 1.08166 1.0814 1.08122 1.08089 1.08064 1.08024 1.07989 1.07941 1.07894 1.07835 1.07776 1.07709 1.07646 1.07584 1.07535 1.07502 1.07496 1.0752 1.0758 1.07677 1.07806 1.07962 1.0813 1.08279 1.0835 1.08237 1.07801 1.06935 1.05662 1.04182 1.02782 1.01674 1.00919 1.00465 1.00218 1.00095 1.00038 1.00014 1.00005 1.00002 1 1 1 1 1 1 1 1 1 1 1 1 1 1 1 1 1 1 1 1 1 1 1 1 1 1 1 1 1 1 1 1 1 1 1 1 1 1 1 1 1 1 1 1 1 1 1 1 1 1 1 1 1 1 1 1 1 1 1 1 1 1 1 1 1 1 1 1 1 1 1 1 1 1 1 1 1 1 1 1 1 1 1 1 1 1 1 1 1 1 1 1 1 1 1 1 1 1 1 1 1 1 1 1 1 1 1 1 1 1 1 1 1 1 1 1 1 1 1 1 1 1 1 1 1 1 1 1 1 1 1 1 1 1 1 1 1 1 1 1 1 1 1 1 1 1 1 1 1 1 1 1 1 1 1 1 0.999999 0.999996 0.999989 0.999974 0.99994 0.999873 0.999746 0.999526 0.999167 0.998619 0.997832 0.996763 0.995391 0.993714 0.991756 0.98956 0.987182 0.984688 0.982136 0.97958 0.977059 0.9746 0.972218 0.969917 0.967694 0.965541 0.963448 0.961405 0.9594 0.957424 0.95547 0.95353 0.951599 0.949671 0.947742 0.945809 0.943868 0.941917 0.939953 0.937973 0.935976 0.933961 0.931925 0.929868 0.92779 0.925696 0.925696 