# vtk DataFile Version 3.0
LBM simulation at step 110
ASCII
DATASET STRUCTURED_POINTS
DIMENSIONS 128 128 1
ORIGIN 0 0 0
SPACING 1 1 1
POINT_DATA 16384
SCALARS density float
LOOKUP_TABLE default
0.953965 1.01938 1.02113 1.01783 1.01806 1.01827 1.01813 1.01804 1.018 1.01796 1.01792 1.01789 1.01786 1.01783 1.01781 1.01778 1.01776 1.01774 1.01773 1.01771 1.01769 1.01768 1.01766 1.01765 1.01763 1.01762 1.0176 1.01759 1.01758 1.01756 1.01755 1.01754 1.01752 1.01751 1.0175 1.01748 1.01747 1.01745 1.01744 1.01742 1.0174 1.01738 1.01736 1.01734 1.01731 1.01728 1.01724 1.0172 1.01714 1.01706 1.01696 1.01683 1.01665 1.01641 1.01609 1.01565 1.01507 1.01431 1.01333 1.01212 1.01069 1.00907 1.00734 1.00557 1.00386 1.00226 1.00083 0.999556 0.998443 0.997464 0.996591 0.995802 0.995074 0.994395 0.993754 0.993144 0.992561 0.992002 0.991465 0.990947 0.990447 0.989962 0.989491 0.989032 0.988583 0.988143 0.987711 0.987286 0.986866 0.986451 0.98604 0.985633 0.985228 0.984825 0.984424 0.984024 0.983625 0.983226 0.982827 0.982427 0.982026 0.981623 0.981219 0.980812 0.980402 0.979989 0.979572 0.97915 0.978723 0.97829 0.977851 0.977403 0.976947 0.976481 0.976003 0.975512 0.975006 0.974481 0.973932 0.97336 0.972741 0.972054 0.971342 0.970932 0.969017 0.967652 0.985015 0.985015 
1.02195 1.02001 1.0162 1.01747 1.01833 1.01826 1.01812 1.01805 1.018 1.01795 1.01792 1.01789 1.01786 1.01783 1.0178 1.01778 1.01776 1.01774 1.01772 1.0177 1.01769 1.01767 1.01766 1.01764 1.01762 1.01761 1.0176 1.01758 1.01757 1.01755 1.01754 1.01753 1.01751 1.0175 1.01748 1.01747 1.01745 1.01744 1.01742 1.0174 1.01738 1.01736 1.01734 1.01732 1.01729 1.01725 1.01721 1.01716 1.01709 1.01701 1.0169 1.01676 1.01657 1.01632 1.01599 1.01555 1.01498 1.01424 1.0133 1.01214 1.01076 1.00919 1.0075 1.00575 1.00403 1.00241 1.00093 0.999623 0.998473 0.997466 0.996576 0.995776 0.995045 0.994366 0.993728 0.993121 0.992542 0.991986 0.991451 0.990935 0.990435 0.989951 0.98948 0.989021 0.988572 0.988132 0.987699 0.987273 0.986853 0.986438 0.986026 0.985618 0.985213 0.984809 0.984407 0.984007 0.983606 0.983206 0.982806 0.982405 0.982003 0.981599 0.981193 0.980784 0.980373 0.979958 0.979538 0.979114 0.978685 0.978249 0.977805 0.977354 0.976893 0.976421 0.975937 0.975438 0.974922 0.974385 0.973823 0.973237 0.972613 0.971891 0.970985 0.970292 0.9709 0.971961 0.970002 0.970002 
1.02936 1.01689 1.01627 1.01879 1.01841 1.018 1.01803 1.01805 1.018 1.01795 1.01791 1.01788 1.01785 1.01782 1.0178 1.01778 1.01776 1.01774 1.01772 1.0177 1.01768 1.01766 1.01765 1.01763 1.01762 1.0176 1.01759 1.01757 1.01756 1.01754 1.01753 1.01752 1.0175 1.01749 1.01747 1.01745 1.01744 1.01742 1.0174 1.01738 1.01736 1.01734 1.01731 1.01729 1.01725 1.01721 1.01717 1.01711 1.01704 1.01695 1.01683 1.01669 1.01649 1.01624 1.01591 1.01549 1.01494 1.01423 1.01333 1.01221 1.01088 1.00935 1.00767 1.00592 1.00419 1.00254 1.00102 0.999675 0.998493 0.997461 0.996555 0.995746 0.995012 0.994335 0.9937 0.993098 0.992523 0.991971 0.99144 0.990926 0.990428 0.989945 0.989475 0.989016 0.988567 0.988127 0.987694 0.987268 0.986847 0.986431 0.986019 0.98561 0.985204 0.9848 0.984398 0.983996 0.983595 0.983194 0.982793 0.982391 0.981987 0.981582 0.981175 0.980765 0.980352 0.979935 0.979514 0.979088 0.978656 0.978218 0.977772 0.977317 0.976853 0.976377 0.975888 0.975383 0.97486 0.974318 0.973748 0.973132 0.972477 0.971841 0.971207 0.970332 0.969763 0.967871 0.961271 0.961271 
1.01417 1.01853 1.02055 1.01823 1.01758 1.01809 1.01817 1.01803 1.01796 1.01794 1.01791 1.01787 1.01784 1.01782 1.01779 1.01777 1.01775 1.01773 1.01771 1.01769 1.01767 1.01766 1.01764 1.01762 1.01761 1.01759 1.01758 1.01756 1.01755 1.01753 1.01752 1.0175 1.01749 1.01747 1.01745 1.01744 1.01742 1.0174 1.01738 1.01736 1.01734 1.01731 1.01729 1.01725 1.01722 1.01718 1.01712 1.01706 1.01699 1.01689 1.01677 1.01662 1.01642 1.01618 1.01586 1.01544 1.01491 1.01423 1.01337 1.0123 1.011 1.0095 1.00784 1.00609 1.00434 1.00266 1.00111 0.999732 0.998522 0.997467 0.996545 0.995728 0.99499 0.994313 0.99368 0.993081 0.99251 0.991961 0.991433 0.990921 0.990426 0.989944 0.989475 0.989016 0.988568 0.988128 0.987695 0.987268 0.986847 0.986431 0.986018 0.985609 0.985202 0.984798 0.984394 0.983992 0.98359 0.983189 0.982787 0.982384 0.98198 0.981574 0.981165 0.980754 0.98034 0.979922 0.9795 0.979072 0.978638 0.978198 0.97775 0.977294 0.976827 0.976349 0.975857 0.975349 0.974823 0.974273 0.973701 0.973104 0.972451 0.971721 0.971054 0.970388 0.969319 0.967261 0.963049 0.963049 
1.01839 1.01907 1.01818 1.01775 1.01832 1.01822 1.01798 1.01796 1.01797 1.01793 1.01789 1.01786 1.01783 1.01781 1.01778 1.01776 1.01774 1.01772 1.0177 1.01768 1.01766 1.01765 1.01763 1.01761 1.0176 1.01758 1.01757 1.01755 1.01754 1.01752 1.01751 1.01749 1.01747 1.01746 1.01744 1.01742 1.0174 1.01738 1.01736 1.01734 1.01731 1.01729 1.01726 1.01722 1.01718 1.01714 1.01709 1.01702 1.01694 1.01684 1.01672 1.01656 1.01637 1.01612 1.01581 1.01541 1.0149 1.01424 1.01341 1.01238 1.01112 1.00964 1.008 1.00625 1.00449 1.00278 1.00121 0.999799 0.998561 0.997486 0.996549 0.995722 0.994981 0.994302 0.99367 0.993074 0.992505 0.991959 0.991433 0.990923 0.990429 0.989949 0.98948 0.989022 0.988574 0.988134 0.987701 0.987274 0.986853 0.986436 0.986024 0.985614 0.985207 0.984801 0.984398 0.983995 0.983593 0.98319 0.982788 0.982384 0.981979 0.981572 0.981163 0.980752 0.980336 0.979918 0.979494 0.979066 0.978631 0.97819 0.977741 0.977283 0.976816 0.976336 0.975843 0.975335 0.97481 0.974262 0.973684 0.973078 0.972455 0.971784 0.971041 0.970167 0.968733 0.967482 0.966455 0.966455 
1.0193 1.01823 1.0178 1.01843 1.01829 1.01794 1.01797 1.01801 1.01795 1.0179 1.01787 1.01785 1.01782 1.0178 1.01777 1.01775 1.01773 1.01771 1.01769 1.01767 1.01765 1.01764 1.01762 1.0176 1.01759 1.01757 1.01756 1.01754 1.01752 1.01751 1.01749 1.01748 1.01746 1.01744 1.01742 1.01741 1.01739 1.01736 1.01734 1.01732 1.01729 1.01726 1.01723 1.0172 1.01715 1.01711 1.01705 1.01698 1.0169 1.01679 1.01667 1.01651 1.01631 1.01607 1.01576 1.01537 1.01488 1.01425 1.01346 1.01246 1.01123 1.00979 1.00816 1.00641 1.00464 1.00291 1.00131 0.999872 0.998609 0.997514 0.996562 0.995727 0.994981 0.994302 0.993671 0.993076 0.99251 0.991966 0.991442 0.990934 0.99044 0.989961 0.989493 0.989035 0.988587 0.988147 0.987714 0.987287 0.986865 0.986448 0.986035 0.985625 0.985217 0.984811 0.984407 0.984004 0.983601 0.983198 0.982795 0.982391 0.981985 0.981578 0.981169 0.980756 0.980341 0.979921 0.979497 0.979068 0.978634 0.978192 0.977743 0.977285 0.976818 0.976339 0.975847 0.97534 0.974815 0.974271 0.973705 0.973105 0.972472 0.97181 0.971064 0.970248 0.96918 0.968121 0.967503 0.967503 
1.01782 1.01814 1.01833 1.0182 1.01794 1.01802 1.01804 1.01795 1.0179 1.01789 1.01786 1.01783 1.01781 1.01778 1.01776 1.01774 1.01772 1.0177 1.01768 1.01766 1.01764 1.01763 1.01761 1.01759 1.01758 1.01756 1.01754 1.01753 1.01751 1.0175 1.01748 1.01746 1.01745 1.01743 1.01741 1.01739 1.01737 1.01735 1.01732 1.0173 1.01727 1.01724 1.01721 1.01717 1.01712 1.01707 1.01701 1.01694 1.01685 1.01675 1.01662 1.01646 1.01626 1.01601 1.01571 1.01534 1.01487 1.01427 1.0135 1.01254 1.01135 1.00993 1.00832 1.00658 1.00479 1.00305 1.00142 0.999954 0.998667 0.997552 0.996587 0.995743 0.994993 0.994312 0.993681 0.993088 0.992524 0.991981 0.991458 0.990952 0.990459 0.98998 0.989512 0.989055 0.988606 0.988166 0.987733 0.987306 0.986884 0.986466 0.986053 0.985642 0.985234 0.984828 0.984423 0.984019 0.983616 0.983213 0.982809 0.982405 0.981999 0.981591 0.981181 0.980769 0.980353 0.979933 0.979509 0.97908 0.978645 0.978204 0.977755 0.977298 0.976832 0.976354 0.975864 0.975361 0.97484 0.9743 0.97374 0.973156 0.97254 0.971887 0.971149 0.970355 0.969605 0.968741 0.967941 0.967941 
1.01799 1.0181 1.01812 1.01798 1.01802 1.01804 1.01794 1.0179 1.0179 1.01787 1.01784 1.01781 1.01779 1.01777 1.01775 1.01773 1.01771 1.01769 1.01767 1.01765 1.01763 1.01762 1.0176 1.01758 1.01757 1.01755 1.01753 1.01752 1.0175 1.01748 1.01747 1.01745 1.01743 1.01741 1.01739 1.01737 1.01735 1.01733 1.0173 1.01728 1.01725 1.01722 1.01718 1.01714 1.01709 1.01704 1.01698 1.0169 1.01681 1.0167 1.01657 1.01641 1.01621 1.01597 1.01567 1.01531 1.01486 1.01428 1.01355 1.01263 1.01147 1.01008 1.00848 1.00675 1.00495 1.00319 1.00153 1.00004 0.998732 0.997599 0.996621 0.995769 0.995014 0.994331 0.993701 0.993109 0.992545 0.992005 0.991483 0.990977 0.990486 0.990007 0.989539 0.989082 0.988633 0.988193 0.987759 0.987331 0.986909 0.986491 0.986077 0.985666 0.985257 0.984851 0.984446 0.984042 0.983638 0.983234 0.98283 0.982425 0.982019 0.981611 0.981201 0.980789 0.980373 0.979953 0.979529 0.9791 0.978666 0.978225 0.977777 0.977321 0.976857 0.976381 0.975894 0.975394 0.97488 0.974348 0.973796 0.973222 0.97262 0.971987 0.971322 0.970595 0.96989 0.969166 0.968398 0.968398 
1.01809 1.01799 1.01796 1.01799 1.01801 1.01793 1.0179 1.0179 1.01787 1.01784 1.01782 1.0178 1.01777 1.01775 1.01773 1.01771 1.01769 1.01767 1.01766 1.01764 1.01762 1.0176 1.01759 1.01757 1.01755 1.01754 1.01752 1.0175 1.01749 1.01747 1.01745 1.01744 1.01742 1.0174 1.01738 1.01736 1.01734 1.01731 1.01729 1.01726 1.01723 1.01719 1.01716 1.01711 1.01706 1.01701 1.01694 1.01686 1.01677 1.01666 1.01652 1.01636 1.01616 1.01592 1.01563 1.01528 1.01485 1.01431 1.01361 1.01271 1.01159 1.01023 1.00865 1.00691 1.00511 1.00333 1.00165 1.00014 0.998807 0.997656 0.996665 0.995805 0.995045 0.99436 0.993729 0.993138 0.992576 0.992036 0.991515 0.99101 0.990519 0.990041 0.989573 0.989115 0.988667 0.988226 0.987792 0.987364 0.986941 0.986523 0.986108 0.985696 0.985287 0.98488 0.984475 0.98407 0.983666 0.983262 0.982858 0.982453 0.982047 0.981639 0.981228 0.980816 0.9804 0.97998 0.979557 0.979128 0.978695 0.978255 0.977808 0.977354 0.976891 0.976419 0.975936 0.975441 0.974932 0.974408 0.973867 0.973306 0.972722 0.972108 0.971483 0.970832 0.970148 0.969493 0.96884 0.96884 
1.01791 1.01794 1.01795 1.01795 1.01792 1.01789 1.01789 1.01787 1.01784 1.01782 1.0178 1.01778 1.01775 1.01774 1.01772 1.0177 1.01768 1.01766 1.01764 1.01763 1.01761 1.01759 1.01757 1.01756 1.01754 1.01753 1.01751 1.01749 1.01747 1.01746 1.01744 1.01742 1.0174 1.01738 1.01736 1.01734 1.01732 1.0173 1.01727 1.01724 1.01721 1.01717 1.01713 1.01709 1.01704 1.01698 1.01691 1.01683 1.01673 1.01662 1.01648 1.01631 1.01611 1.01588 1.0156 1.01526 1.01485 1.01433 1.01367 1.01281 1.01172 1.01038 1.00882 1.00708 1.00527 1.00347 1.00178 1.00024 0.998889 0.997723 0.99672 0.995852 0.995087 0.994399 0.993768 0.993176 0.992615 0.992076 0.991556 0.991051 0.99056 0.990082 0.989614 0.989156 0.988707 0.988266 0.987832 0.987403 0.98698 0.986561 0.986146 0.985734 0.985324 0.984917 0.984511 0.984106 0.983702 0.983297 0.982893 0.982487 0.982081 0.981673 0.981263 0.98085 0.980434 0.980015 0.979592 0.979164 0.978732 0.978293 0.977848 0.977396 0.976936 0.976467 0.975988 0.975497 0.974995 0.974479 0.973948 0.9734 0.972836 0.972251 0.971647 0.971037 0.970405 0.969781 0.969181 0.969181 
1.01788 1.0179 1.0179 1.01789 1.01788 1.01787 1.01785 1.01783 1.01781 1.0178 1.01777 1.01775 1.01774 1.01772 1.0177 1.01768 1.01766 1.01765 1.01763 1.01761 1.01759 1.01758 1.01756 1.01755 1.01753 1.01751 1.0175 1.01748 1.01746 1.01745 1.01743 1.01741 1.01739 1.01737 1.01735 1.01733 1.01731 1.01728 1.01726 1.01723 1.01719 1.01716 1.01712 1.01707 1.01701 1.01695 1.01688 1.0168 1.0167 1.01658 1.01644 1.01627 1.01607 1.01584 1.01557 1.01525 1.01486 1.01437 1.01373 1.0129 1.01184 1.01053 1.00898 1.00725 1.00543 1.00362 1.0019 1.00035 0.99898 0.997799 0.996785 0.995909 0.995139 0.994449 0.993815 0.993224 0.992662 0.992124 0.991604 0.9911 0.990609 0.99013 0.989662 0.989204 0.988755 0.988313 0.987878 0.987449 0.987025 0.986606 0.98619 0.985778 0.985368 0.98496 0.984553 0.984148 0.983743 0.983339 0.982934 0.982529 0.982122 0.981714 0.981304 0.980891 0.980476 0.980057 0.979635 0.979208 0.978776 0.978339 0.977896 0.977446 0.976989 0.976523 0.976048 0.975563 0.975068 0.97456 0.974039 0.973504 0.972955 0.972393 0.971814 0.971226 0.970636 0.970041 0.969461 0.969461 
1.01786 1.01785 1.01785 1.01785 1.01784 1.01783 1.01781 1.0178 1.01779 1.01777 1.01775 1.01773 1.01772 1.0177 1.01768 1.01766 1.01765 1.01763 1.01761 1.0176 1.01758 1.01756 1.01755 1.01753 1.01752 1.0175 1.01748 1.01747 1.01745 1.01743 1.01742 1.0174 1.01738 1.01736 1.01734 1.01732 1.0173 1.01728 1.01725 1.01722 1.01719 1.01715 1.01711 1.01706 1.017 1.01693 1.01686 1.01677 1.01667 1.01654 1.0164 1.01623 1.01604 1.01581 1.01555 1.01524 1.01487 1.0144 1.0138 1.013 1.01197 1.01068 1.00915 1.00742 1.0056 1.00377 1.00204 1.00046 0.999079 0.997884 0.99686 0.995976 0.995202 0.994508 0.993873 0.99328 0.992719 0.99218 0.99166 0.991156 0.990665 0.990186 0.989718 0.989259 0.988809 0.988367 0.987932 0.987502 0.987077 0.986657 0.986241 0.985828 0.985418 0.985009 0.984603 0.984197 0.983792 0.983387 0.982982 0.982577 0.98217 0.981762 0.981352 0.98094 0.980525 0.980107 0.979685 0.979259 0.978829 0.978393 0.977952 0.977505 0.97705 0.976588 0.976117 0.975638 0.975148 0.974648 0.974137 0.973615 0.97308 0.972534 0.971978 0.971412 0.970844 0.970275 0.969711 0.969711 
1.01781 1.01781 1.01781 1.01781 1.01781 1.01779 1.01779 1.01777 1.01776 1.01774 1.01773 1.01771 1.01769 1.01768 1.01766 1.01765 1.01763 1.01761 1.0176 1.01758 1.01757 1.01755 1.01753 1.01752 1.0175 1.01749 1.01747 1.01746 1.01744 1.01743 1.01741 1.0174 1.01738 1.01736 1.01735 1.01733 1.01731 1.01728 1.01726 1.01723 1.01719 1.01715 1.01711 1.01706 1.017 1.01693 1.01685 1.01676 1.01665 1.01652 1.01638 1.01621 1.01601 1.01579 1.01553 1.01524 1.01489 1.01445 1.01387 1.01311 1.01211 1.01084 1.00932 1.00759 1.00576 1.00392 1.00217 1.00058 0.999185 0.997979 0.996945 0.996055 0.995275 0.994578 0.993941 0.993347 0.992784 0.992245 0.991725 0.991221 0.990729 0.99025 0.989781 0.989322 0.988871 0.988428 0.987992 0.987562 0.987137 0.986716 0.986299 0.985886 0.985475 0.985066 0.984659 0.984253 0.983847 0.983443 0.983037 0.982632 0.982225 0.981817 0.981408 0.980996 0.980581 0.980164 0.979743 0.979318 0.978889 0.978455 0.978016 0.977571 0.977119 0.976661 0.976194 0.97572 0.975237 0.974745 0.974242 0.97373 0.973209 0.972677 0.972137 0.971591 0.97104 0.970489 0.969942 0.969942 
1.01777 1.01778 1.01778 1.01777 1.01777 1.01776 1.01776 1.01774 1.01773 1.01772 1.0177 1.01769 1.01767 1.01766 1.01764 1.01763 1.01761 1.0176 1.01758 1.01757 1.01755 1.01754 1.01752 1.01751 1.01749 1.01748 1.01747 1.01745 1.01744 1.01743 1.01742 1.0174 1.01739 1.01738 1.01736 1.01735 1.01733 1.01731 1.01729 1.01726 1.01722 1.01718 1.01714 1.01708 1.01702 1.01695 1.01686 1.01677 1.01665 1.01652 1.01637 1.01619 1.016 1.01578 1.01553 1.01525 1.01491 1.0145 1.01395 1.01322 1.01224 1.011 1.00948 1.00776 1.00593 1.00408 1.00231 1.00071 0.999299 0.998083 0.997041 0.996144 0.99536 0.994659 0.994019 0.993423 0.992859 0.99232 0.991799 0.991293 0.990801 0.990321 0.989852 0.989392 0.98894 0.988497 0.98806 0.987629 0.987203 0.986782 0.986364 0.98595 0.985538 0.985129 0.984722 0.984315 0.98391 0.983505 0.983099 0.982694 0.982287 0.981879 0.98147 0.981058 0.980645 0.980228 0.979808 0.979384 0.978957 0.978525 0.978087 0.977645 0.977196 0.976741 0.976279 0.97581 0.975332 0.974847 0.974353 0.973851 0.97334 0.972821 0.972295 0.971763 0.971227 0.970691 0.970157 0.970157 
1.01774 1.01774 1.01774 1.01774 1.01774 1.01773 1.01773 1.01772 1.01771 1.01769 1.01768 1.01767 1.01765 1.01764 1.01762 1.01761 1.0176 1.01758 1.01757 1.01755 1.01754 1.01752 1.01751 1.0175 1.01749 1.01747 1.01746 1.01746 1.01745 1.01744 1.01743 1.01743 1.01742 1.01742 1.01741 1.0174 1.01739 1.01737 1.01735 1.01733 1.01729 1.01726 1.01721 1.01715 1.01708 1.017 1.01691 1.01681 1.01668 1.01654 1.01638 1.0162 1.016 1.01578 1.01554 1.01527 1.01495 1.01456 1.01404 1.01333 1.01238 1.01115 1.00965 1.00793 1.00609 1.00423 1.00246 1.00084 0.99942 0.998195 0.997147 0.996245 0.995456 0.994751 0.994108 0.99351 0.992944 0.992403 0.991881 0.991375 0.990882 0.990401 0.989931 0.98947 0.989017 0.988573 0.988135 0.987703 0.987276 0.986854 0.986436 0.986021 0.985609 0.9852 0.984792 0.984385 0.983979 0.983574 0.983168 0.982763 0.982356 0.981949 0.981539 0.981128 0.980715 0.980299 0.97988 0.979458 0.979032 0.978601 0.978166 0.977726 0.97728 0.976829 0.976371 0.975906 0.975435 0.974956 0.974469 0.973975 0.973474 0.972966 0.972451 0.971932 0.971409 0.970884 0.970361 0.970361 
1.01771 1.01771 1.01771 1.01771 1.01771 1.0177 1.0177 1.01769 1.01768 1.01767 1.01766 1.01765 1.01763 1.01762 1.01761 1.01759 1.01758 1.01757 1.01755 1.01754 1.01753 1.01751 1.0175 1.01749 1.01749 1.01748 1.01748 1.01747 1.01747 1.01748 1.01748 1.01748 1.01749 1.01749 1.0175 1.0175 1.0175 1.01749 1.01747 1.01745 1.01742 1.01739 1.01734 1.01728 1.0172 1.01712 1.01702 1.0169 1.01676 1.01661 1.01644 1.01625 1.01604 1.01582 1.01558 1.01531 1.01501 1.01464 1.01414 1.01346 1.01253 1.01131 1.00982 1.0081 1.00625 1.00438 1.0026 1.00098 0.999547 0.998316 0.997263 0.996356 0.995563 0.994855 0.994208 0.993607 0.993039 0.992496 0.991972 0.991465 0.990971 0.990489 0.990017 0.989555 0.989102 0.988656 0.988217 0.987785 0.987357 0.986934 0.986515 0.9861 0.985687 0.985277 0.984869 0.984462 0.984055 0.98365 0.983244 0.982839 0.982432 0.982025 0.981616 0.981206 0.980793 0.980378 0.97996 0.979539 0.979114 0.978685 0.978252 0.977815 0.977372 0.976924 0.97647 0.97601 0.975543 0.97507 0.974591 0.974104 0.973612 0.973113 0.972608 0.972099 0.971586 0.971072 0.970558 0.970558 
1.01769 1.01768 1.01769 1.01768 1.01768 1.01768 1.01767 1.01766 1.01766 1.01765 1.01763 1.01762 1.01761 1.0176 1.01759 1.01758 1.01756 1.01755 1.01754 1.01753 1.01752 1.01751 1.0175 1.0175 1.0175 1.0175 1.01751 1.01752 1.01753 1.01755 1.01757 1.01759 1.01761 1.01763 1.01765 1.01767 1.01768 1.01768 1.01768 1.01766 1.01764 1.0176 1.01755 1.01748 1.0174 1.01731 1.01719 1.01706 1.01691 1.01674 1.01655 1.01635 1.01613 1.01589 1.01565 1.01539 1.0151 1.01474 1.01426 1.01359 1.01268 1.01148 1.00999 1.00827 1.00641 1.00454 1.00275 1.00111 0.99968 0.998446 0.997389 0.996479 0.995682 0.99497 0.99432 0.993715 0.993144 0.992599 0.992073 0.991564 0.991068 0.990585 0.990112 0.989649 0.989194 0.988748 0.988308 0.987874 0.987445 0.987022 0.986602 0.986186 0.985773 0.985362 0.984953 0.984545 0.984139 0.983733 0.983328 0.982922 0.982516 0.982109 0.9817 0.98129 0.980878 0.980464 0.980047 0.979627 0.979204 0.978777 0.978346 0.977911 0.977471 0.977026 0.976575 0.976119 0.975658 0.97519 0.974717 0.974237 0.973752 0.973261 0.972765 0.972265 0.971761 0.971256 0.97075 0.97075 
1.01766 1.01766 1.01766 1.01766 1.01766 1.01765 1.01765 1.01764 1.01763 1.01762 1.01761 1.0176 1.01759 1.01758 1.01757 1.01756 1.01755 1.01754 1.01753 1.01752 1.01751 1.01751 1.01751 1.01752 1.01753 1.01755 1.01757 1.0176 1.01763 1.01767 1.01771 1.01776 1.0178 1.01785 1.01789 1.01793 1.01796 1.01797 1.01798 1.01798 1.01796 1.01792 1.01787 1.0178 1.01771 1.01759 1.01746 1.01731 1.01714 1.01695 1.01674 1.01651 1.01627 1.01602 1.01577 1.0155 1.01522 1.01486 1.0144 1.01375 1.01284 1.01165 1.01016 1.00844 1.00657 1.00469 1.00289 1.00126 0.999819 0.998583 0.997525 0.996613 0.995814 0.995098 0.994444 0.993835 0.993261 0.992712 0.992184 0.991672 0.991175 0.99069 0.990216 0.989751 0.989295 0.988847 0.988406 0.987971 0.987542 0.987117 0.986696 0.986279 0.985865 0.985454 0.985045 0.984637 0.98423 0.983824 0.983418 0.983012 0.982606 0.982199 0.981791 0.981382 0.980971 0.980557 0.980141 0.979723 0.979301 0.978876 0.978447 0.978014 0.977576 0.977134 0.976688 0.976236 0.975779 0.975316 0.974848 0.974375 0.973896 0.973413 0.972924 0.972432 0.971936 0.971438 0.970939 0.970939 
1.01763 1.01763 1.01763 1.01763 1.01763 1.01763 1.01762 1.01761 1.01761 1.0176 1.01759 1.01758 1.01757 1.01756 1.01755 1.01754 1.01753 1.01753 1.01752 1.01752 1.01752 1.01753 1.01755 1.01757 1.0176 1.01764 1.01768 1.01774 1.0178 1.01787 1.01795 1.01802 1.0181 1.01817 1.01824 1.0183 1.01836 1.01839 1.01842 1.01842 1.01841 1.01837 1.01831 1.01823 1.01813 1.018 1.01785 1.01768 1.01748 1.01726 1.01702 1.01676 1.0165 1.01622 1.01595 1.01568 1.01538 1.01503 1.01457 1.01392 1.01302 1.01183 1.01034 1.0086 1.00673 1.00484 1.00304 1.0014 0.999962 0.998727 0.99767 0.996758 0.995957 0.995238 0.99458 0.993967 0.993388 0.992836 0.992305 0.991791 0.991291 0.990804 0.990328 0.989862 0.989404 0.988955 0.988512 0.988076 0.987646 0.98722 0.986798 0.98638 0.985966 0.985554 0.985144 0.984735 0.984328 0.983922 0.983516 0.98311 0.982704 0.982298 0.98189 0.981481 0.98107 0.980658 0.980243 0.979825 0.979405 0.978982 0.978555 0.978124 0.977689 0.97725 0.976807 0.976359 0.975906 0.975448 0.974985 0.974517 0.974044 0.973567 0.973085 0.972599 0.97211 0.971619 0.971126 0.971126 
1.01761 1.01761 1.01761 1.01761 1.0176 1.0176 1.0176 1.01759 1.01758 1.01758 1.01757 1.01756 1.01755 1.01754 1.01754 1.01753 1.01752 1.01752 1.01753 1.01754 1.01755 1.01758 1.01761 1.01766 1.01771 1.01778 1.01786 1.01796 1.01806 1.01817 1.01828 1.0184 1.01852 1.01863 1.01873 1.01882 1.01889 1.01895 1.01899 1.019 1.01899 1.01896 1.0189 1.01881 1.01869 1.01854 1.01837 1.01817 1.01794 1.01768 1.01741 1.01712 1.01682 1.01651 1.01622 1.01592 1.01561 1.01525 1.01478 1.01413 1.01322 1.01202 1.01052 1.00878 1.00689 1.00499 1.00318 1.00154 1.00011 0.998878 0.997824 0.996914 0.996112 0.995391 0.994729 0.994112 0.993528 0.992971 0.992436 0.991919 0.991417 0.990928 0.99045 0.989981 0.989522 0.989071 0.988627 0.98819 0.987758 0.987331 0.986908 0.98649 0.986074 0.985661 0.985251 0.984842 0.984434 0.984028 0.983622 0.983216 0.98281 0.982404 0.981996 0.981588 0.981178 0.980766 0.980352 0.979936 0.979517 0.979095 0.97867 0.978241 0.977809 0.977373 0.976933 0.976488 0.976039 0.975585 0.975127 0.974664 0.974197 0.973725 0.973249 0.972769 0.972286 0.9718 0.971313 0.971313 
1.01759 1.01758 1.01758 1.01758 1.01758 1.01758 1.01757 1.01757 1.01756 1.01756 1.01755 1.01754 1.01753 1.01753 1.01752 1.01752 1.01752 1.01753 1.01755 1.01757 1.01761 1.01766 1.01772 1.0178 1.01789 1.01801 1.01813 1.01827 1.01842 1.01858 1.01875 1.01891 1.01907 1.01922 1.01935 1.01947 1.01957 1.01964 1.01969 1.01971 1.01971 1.01967 1.0196 1.0195 1.01937 1.0192 1.01901 1.01877 1.01851 1.01822 1.01791 1.01758 1.01724 1.0169 1.01657 1.01625 1.01591 1.01553 1.01505 1.01438 1.01345 1.01223 1.01071 1.00895 1.00705 1.00514 1.00333 1.00169 1.00026 0.999034 0.997987 0.99708 0.99628 0.995557 0.994892 0.994269 0.993681 0.993119 0.992579 0.992059 0.991553 0.991061 0.990581 0.99011 0.989649 0.989196 0.988751 0.988311 0.987878 0.98745 0.987026 0.986607 0.98619 0.985777 0.985365 0.984956 0.984548 0.984141 0.983735 0.983329 0.982923 0.982517 0.98211 0.981702 0.981293 0.980882 0.980469 0.980054 0.979636 0.979216 0.978792 0.978366 0.977936 0.977502 0.977065 0.976624 0.976178 0.975728 0.975274 0.974816 0.974353 0.973887 0.973416 0.972942 0.972464 0.971984 0.971502 0.971502 
1.01756 1.01756 1.01756 1.01756 1.01756 1.01755 1.01755 1.01755 1.01754 1.01754 1.01753 1.01752 1.01752 1.01752 1.01752 1.01752 1.01754 1.01756 1.01759 1.01764 1.0177 1.01779 1.01789 1.01801 1.01816 1.01833 1.01851 1.01871 1.01892 1.01913 1.01935 1.01956 1.01976 1.01994 1.02011 1.02025 1.02036 1.02045 1.02051 1.02053 1.02052 1.02048 1.0204 1.02029 1.02015 1.01996 1.01974 1.01948 1.01919 1.01887 1.01852 1.01815 1.01777 1.01739 1.01702 1.01666 1.01629 1.01588 1.01537 1.01467 1.01372 1.01247 1.01092 1.00913 1.00721 1.00529 1.00347 1.00183 1.00041 0.999195 0.998156 0.997256 0.996459 0.995736 0.995067 0.99444 0.993846 0.993279 0.992734 0.992209 0.9917 0.991205 0.990721 0.990249 0.989785 0.98933 0.988883 0.988442 0.988007 0.987578 0.987153 0.986732 0.986315 0.9859 0.985488 0.985078 0.98467 0.984263 0.983856 0.98345 0.983044 0.982638 0.982232 0.981824 0.981415 0.981005 0.980593 0.980179 0.979763 0.979344 0.978923 0.978498 0.97807 0.977639 0.977205 0.976766 0.976324 0.975878 0.975428 0.974973 0.974515 0.974053 0.973587 0.973118 0.972645 0.972169 0.971692 0.971692 
1.01754 1.01754 1.01754 1.01754 1.01753 1.01753 1.01753 1.01752 1.01752 1.01752 1.01751 1.01751 1.01751 1.01751 1.01752 1.01754 1.01757 1.01761 1.01767 1.01775 1.01785 1.01798 1.01814 1.01832 1.01853 1.01876 1.01901 1.01927 1.01954 1.01981 1.02007 1.02033 1.02056 1.02077 1.02096 1.02111 1.02123 1.02132 1.02138 1.0214 1.02139 1.02134 1.02125 1.02113 1.02097 1.02077 1.02053 1.02025 1.01994 1.01959 1.0192 1.0188 1.01839 1.01797 1.01756 1.01717 1.01676 1.01631 1.01575 1.01502 1.01402 1.01273 1.01114 1.00932 1.00738 1.00544 1.00361 1.00198 1.00057 0.99936 0.998332 0.99744 0.996648 0.995927 0.995257 0.994625 0.994026 0.993452 0.992902 0.992371 0.991858 0.991359 0.990872 0.990397 0.989931 0.989474 0.989025 0.988582 0.988146 0.987714 0.987288 0.986866 0.986448 0.986032 0.98562 0.985209 0.9848 0.984392 0.983986 0.98358 0.983174 0.982768 0.982361 0.981954 0.981546 0.981136 0.980725 0.980312 0.979897 0.97948 0.97906 0.978637 0.978212 0.977783 0.977351 0.976915 0.976476 0.976034 0.975587 0.975137 0.974682 0.974224 0.973763 0.973298 0.972829 0.972358 0.971885 0.971885 
1.01752 1.01751 1.01751 1.01751 1.01751 1.01751 1.01751 1.0175 1.0175 1.0175 1.0175 1.0175 1.0175 1.01752 1.01754 1.01757 1.01762 1.0177 1.0178 1.01792 1.01808 1.01827 1.01849 1.01874 1.01902 1.01932 1.01964 1.01996 1.02029 1.0206 1.02091 1.02119 1.02144 1.02167 1.02185 1.02201 1.02213 1.02221 1.02225 1.02226 1.02224 1.02218 1.02209 1.02195 1.02178 1.02157 1.02132 1.02103 1.0207 1.02033 1.01993 1.0195 1.01906 1.01862 1.01818 1.01775 1.0173 1.01681 1.0162 1.01541 1.01437 1.01302 1.01138 1.00952 1.00755 1.00559 1.00376 1.00212 1.00072 0.999526 0.998512 0.997632 0.996848 0.99613 0.99546 0.994824 0.994219 0.993639 0.993082 0.992546 0.992027 0.991524 0.991034 0.990555 0.990087 0.989627 0.989176 0.988731 0.988293 0.98786 0.987432 0.987009 0.986589 0.986173 0.985759 0.985348 0.984938 0.98453 0.984123 0.983717 0.983311 0.982905 0.982499 0.982092 0.981684 0.981276 0.980865 0.980453 0.98004 0.979624 0.979205 0.978785 0.978361 0.977934 0.977505 0.977072 0.976636 0.976196 0.975753 0.975306 0.974855 0.974401 0.973944 0.973482 0.973018 0.972551 0.972082 0.972082 
1.0175 1.01749 1.01749 1.01749 1.01749 1.01749 1.01749 1.01748 1.01748 1.01748 1.01748 1.01749 1.01751 1.01754 1.01758 1.01764 1.01772 1.01784 1.01798 1.01817 1.01839 1.01865 1.01895 1.01927 1.01963 1.02 1.02038 1.02076 1.02112 1.02147 1.0218 1.02209 1.02234 1.02256 1.02273 1.02287 1.02297 1.02303 1.02306 1.02306 1.02302 1.02295 1.02285 1.02271 1.02253 1.02231 1.02206 1.02176 1.02143 1.02106 1.02065 1.02022 1.01976 1.0193 1.01885 1.01838 1.0179 1.01736 1.01671 1.01586 1.01475 1.01334 1.01164 1.00973 1.00772 1.00574 1.00389 1.00226 1.00087 0.999693 0.998695 0.99783 0.997057 0.996345 0.995675 0.995037 0.994426 0.99384 0.993276 0.992732 0.992208 0.9917 0.991206 0.990724 0.990252 0.98979 0.989336 0.98889 0.98845 0.988015 0.987586 0.987161 0.98674 0.986323 0.985908 0.985496 0.985086 0.984677 0.98427 0.983863 0.983457 0.983051 0.982645 0.982239 0.981831 0.981423 0.981014 0.980603 0.98019 0.979776 0.979359 0.97894 0.978518 0.978093 0.977666 0.977235 0.976802 0.976365 0.975925 0.975481 0.975034 0.974584 0.97413 0.973672 0.973212 0.972748 0.972283 0.972283 
1.01748 1.01747 1.01747 1.01747 1.01747 1.01747 1.01747 1.01747 1.01747 1.01747 1.01748 1.0175 1.01753 1.01758 1.01764 1.01774 1.01787 1.01804 1.01825 1.0185 1.0188 1.01914 1.01952 1.01992 1.02034 1.02078 1.0212 1.02162 1.02201 1.02237 1.02269 1.02297 1.0232 1.02339 1.02354 1.02364 1.02371 1.02375 1.02376 1.02373 1.02368 1.0236 1.02349 1.02334 1.02316 1.02294 1.02269 1.0224 1.02208 1.02171 1.02132 1.02089 1.02045 1.01999 1.01952 1.01905 1.01854 1.01796 1.01725 1.01634 1.01516 1.01368 1.01192 1.00995 1.00789 1.00588 1.00403 1.0024 1.00102 0.999857 0.998878 0.998031 0.997271 0.996568 0.995901 0.995262 0.994647 0.994053 0.993482 0.992931 0.9924 0.991886 0.991388 0.990902 0.990427 0.989963 0.989506 0.989058 0.988616 0.98818 0.987749 0.987323 0.9869 0.986482 0.986066 0.985653 0.985242 0.984833 0.984425 0.984018 0.983612 0.983206 0.9828 0.982394 0.981987 0.981579 0.981171 0.98076 0.980349 0.979935 0.97952 0.979103 0.978683 0.97826 0.977835 0.977407 0.976976 0.976541 0.976104 0.975664 0.97522 0.974772 0.974322 0.973868 0.973411 0.972951 0.972488 0.972488 
1.01745 1.01745 1.01745 1.01745 1.01745 1.01745 1.01745 1.01745 1.01746 1.01747 1.01749 1.01752 1.01757 1.01764 1.01775 1.01789 1.01808 1.01831 1.0186 1.01893 1.01931 1.01974 1.02019 1.02067 1.02114 1.02162 1.02207 1.0225 1.02289 1.02323 1.02352 1.02377 1.02396 1.0241 1.02421 1.02428 1.02431 1.02432 1.0243 1.02426 1.0242 1.0241 1.02398 1.02383 1.02365 1.02344 1.02319 1.02292 1.02261 1.02227 1.0219 1.0215 1.02108 1.02064 1.02018 1.0197 1.01918 1.01856 1.01781 1.01683 1.01558 1.01403 1.0122 1.01016 1.00806 1.00602 1.00415 1.00253 1.00115 1.00001 0.999058 0.998232 0.997489 0.996797 0.996137 0.995498 0.994879 0.994279 0.9937 0.993141 0.992603 0.992083 0.991579 0.991089 0.990611 0.990144 0.989686 0.989235 0.988791 0.988354 0.987921 0.987493 0.98707 0.98665 0.986233 0.985819 0.985407 0.984998 0.984589 0.984182 0.983775 0.983369 0.982963 0.982557 0.982151 0.981744 0.981336 0.980927 0.980516 0.980104 0.97969 0.979274 0.978856 0.978435 0.978012 0.977586 0.977157 0.976725 0.976291 0.975853 0.975412 0.974968 0.974521 0.97407 0.973616 0.973159 0.9727 0.9727 