# vtk DataFile Version 3.0
LBM simulation at step 70
ASCII
DATASET STRUCTURED_POINTS
DIMENSIONS 128 128 1
ORIGIN 0 0 0
SPACING 1 1 1
POINT_DATA 16384
SCALARS density float
LOOKUP_TABLE default
0.953755 1.01915 1.02092 1.01764 1.01788 1.01809 1.01795 1.01785 1.0178 1.01775 1.0177 1.01766 1.01762 1.01758 1.01755 1.01752 1.01749 1.01745 1.01742 1.01739 1.01736 1.01733 1.01729 1.01725 1.0172 1.01715 1.01709 1.01701 1.01691 1.01678 1.0166 1.01636 1.01603 1.01557 1.01494 1.01406 1.01287 1.01135 1.00957 1.00764 1.00574 1.00405 1.00266 1.00163 1.00093 1.0005 1.00025 1.00011 1.00005 1.00002 1.00001 1 1 1 1 1 1 1 1 1 1 1 1 1 1 1 1 1 1 1 1 1 1 1 1 1 1 1 0.999999 0.999998 0.999994 0.999985 0.999964 0.99992 0.999838 0.999695 0.999465 0.999123 0.99865 0.998041 0.99731 0.996483 0.995596 0.994683 0.993773 0.992883 0.992024 0.991196 0.9904 0.989633 0.988891 0.988173 0.987473 0.986789 0.986117 0.985454 0.984798 0.984147 0.983498 0.982849 0.982199 0.981545 0.980885 0.980219 0.979542 0.978854 0.978151 0.977429 0.976685 0.975915 0.975097 0.974209 0.973297 0.972691 0.970582 0.969046 0.986264 0.986264 
1.02173 1.01978 1.01598 1.01726 1.01813 1.01806 1.01792 1.01784 1.01778 1.01773 1.01769 1.01765 1.01761 1.01757 1.01754 1.0175 1.01747 1.01744 1.0174 1.01737 1.01734 1.0173 1.01726 1.01722 1.01717 1.01711 1.01704 1.01696 1.01685 1.0167 1.01651 1.01625 1.01591 1.01544 1.01481 1.01397 1.01285 1.01144 1.00976 1.00791 1.00605 1.00434 1.00291 1.00182 1.00106 1.00058 1.00029 1.00014 1.00006 1.00002 1.00001 1 1 1 1 1 1 1 1 1 1 1 1 1 1 1 1 1 1 1 1 1 1 1 1 1 1 1 0.999999 0.999997 0.999993 0.999981 0.999956 0.999906 0.999813 0.999655 0.999406 0.999042 0.99855 0.997928 0.997192 0.996369 0.995495 0.994599 0.993706 0.992832 0.991983 0.991163 0.990372 0.989608 0.988868 0.988149 0.987449 0.986763 0.98609 0.985425 0.984767 0.984113 0.983461 0.982809 0.982155 0.981496 0.980832 0.98016 0.979477 0.978781 0.978068 0.977334 0.976576 0.975793 0.974971 0.97405 0.972945 0.972055 0.972475 0.973366 0.971238 0.971238 
1.02911 1.01665 1.01604 1.01857 1.01819 1.01779 1.01781 1.01783 1.01778 1.01772 1.01767 1.01763 1.01759 1.01755 1.01752 1.01748 1.01745 1.01742 1.01738 1.01735 1.01731 1.01727 1.01723 1.01718 1.01712 1.01706 1.01698 1.01689 1.01677 1.01661 1.01641 1.01615 1.01581 1.01536 1.01477 1.01398 1.01294 1.0116 1.00998 1.00817 1.00631 1.00457 1.0031 1.00196 1.00116 1.00064 1.00032 1.00015 1.00007 1.00003 1.00001 1 1 1 1 1 1 1 1 1 1 1 1 1 1 1 1 1 1 1 1 1 1 1 1 1 1 1 0.999999 0.999997 0.999992 0.999979 0.999952 0.999898 0.9998 0.999633 0.999373 0.998996 0.99849 0.997857 0.997112 0.996287 0.995415 0.994526 0.993644 0.992781 0.991944 0.991134 0.990351 0.989592 0.988855 0.988139 0.987439 0.986754 0.986079 0.985413 0.984753 0.984097 0.983443 0.982788 0.98213 0.981469 0.980801 0.980124 0.979436 0.978733 0.978014 0.977276 0.976509 0.975696 0.974844 0.97401 0.973176 0.972106 0.971353 0.969282 0.962484 0.962484 
1.01391 1.01828 1.0203 1.01799 1.01735 1.01786 1.01794 1.01779 1.01772 1.01769 1.01765 1.01761 1.01757 1.01753 1.0175 1.01746 1.01743 1.01739 1.01735 1.01732 1.01728 1.01723 1.01719 1.01713 1.01707 1.01701 1.01692 1.01682 1.01669 1.01653 1.01633 1.01607 1.01574 1.01531 1.01476 1.01402 1.01303 1.01175 1.01018 1.0084 1.00654 1.00478 1.00327 1.00209 1.00124 1.00069 1.00035 1.00017 1.00008 1.00003 1.00001 1 1 1 1 1 1 1 1 1 1 1 1 1 1 1 1 1 1 1 1 1 1 1 1 1 1 1 0.999999 0.999997 0.999991 0.999978 0.99995 0.999894 0.999792 0.999621 0.999354 0.99897 0.998457 0.997816 0.997067 0.99624 0.995369 0.994484 0.993608 0.992753 0.991923 0.99112 0.990343 0.989588 0.988855 0.988141 0.987443 0.986758 0.986083 0.985416 0.984755 0.984098 0.983442 0.982785 0.982125 0.981461 0.980791 0.980111 0.97942 0.978715 0.977991 0.977244 0.976476 0.975682 0.974832 0.973903 0.973038 0.972178 0.970916 0.968664 0.964226 0.964226 
1.01813 1.01881 1.01793 1.01749 1.01807 1.01797 1.01774 1.01771 1.01772 1.01767 1.01762 1.01758 1.01754 1.01751 1.01747 1.01744 1.0174 1.01736 1.01732 1.01729 1.01724 1.0172 1.01715 1.01709 1.01703 1.01696 1.01687 1.01676 1.01663 1.01647 1.01626 1.016 1.01568 1.01527 1.01474 1.01404 1.01311 1.01189 1.01037 1.00862 1.00677 1.00499 1.00344 1.00221 1.00132 1.00074 1.00038 1.00018 1.00008 1.00003 1.00001 1 1 1 1 1 1 1 1 1 1 1 1 1 1 1 1 1 1 1 1 1 1 1 1 1 1 1 0.999999 0.999997 0.999991 0.999978 0.999949 0.999892 0.999789 0.999616 0.999347 0.99896 0.998443 0.9978 0.997049 0.996222 0.995353 0.994472 0.9936 0.99275 0.991926 0.991128 0.990354 0.989603 0.988873 0.98816 0.987462 0.986777 0.986102 0.985435 0.984773 0.984115 0.983458 0.9828 0.982139 0.981473 0.980801 0.98012 0.979427 0.978721 0.977998 0.977253 0.976478 0.975674 0.974852 0.973983 0.973041 0.971967 0.970327 0.96886 0.967584 0.967584 
1.01904 1.01796 1.01753 1.01817 1.01803 1.01768 1.01771 1.01774 1.01768 1.01762 1.01759 1.01756 1.01752 1.01748 1.01744 1.01741 1.01737 1.01734 1.0173 1.01726 1.01721 1.01716 1.01711 1.01705 1.01699 1.01691 1.01682 1.01671 1.01657 1.0164 1.01619 1.01594 1.01562 1.01523 1.01473 1.01408 1.0132 1.01204 1.01057 1.00884 1.00698 1.00518 1.00359 1.00232 1.0014 1.00078 1.00041 1.0002 1.00009 1.00004 1.00001 1.00001 1 1 1 1 1 1 1 1 1 1 1 1 1 1 1 1 1 1 1 1 1 1 1 1 1 1 0.999999 0.999997 0.999991 0.999978 0.999949 0.999893 0.999791 0.999618 0.99935 0.998964 0.998449 0.997807 0.997058 0.996232 0.995364 0.994485 0.993617 0.992771 0.991951 0.991157 0.990387 0.989638 0.988909 0.988197 0.9875 0.986814 0.986139 0.985471 0.984809 0.98415 0.983491 0.982832 0.982171 0.981505 0.980832 0.98015 0.979458 0.978751 0.978028 0.977287 0.976522 0.975723 0.97489 0.974027 0.973076 0.972052 0.970772 0.969479 0.968598 0.968598 
1.01756 1.01786 1.01806 1.01792 1.01767 1.01775 1.01777 1.01767 1.01762 1.0176 1.01756 1.01753 1.01749 1.01745 1.01742 1.01738 1.01734 1.01731 1.01727 1.01722 1.01718 1.01713 1.01707 1.01701 1.01694 1.01686 1.01677 1.01665 1.01651 1.01634 1.01613 1.01587 1.01557 1.01519 1.01472 1.01411 1.01329 1.01218 1.01075 1.00905 1.0072 1.00537 1.00374 1.00243 1.00147 1.00083 1.00043 1.00021 1.00009 1.00004 1.00002 1.00001 1 1 1 1 1 1 1 1 1 1 1 1 1 1 1 1 1 1 1 1 1 1 1 1 1 1 0.999999 0.999997 0.999991 0.999979 0.999951 0.999896 0.999796 0.999627 0.999364 0.998984 0.998474 0.997837 0.997092 0.996268 0.995402 0.994525 0.993658 0.992815 0.991998 0.991206 0.990439 0.989692 0.988964 0.988252 0.987555 0.98687 0.986194 0.985526 0.984862 0.984202 0.983543 0.982884 0.982222 0.981556 0.980883 0.980202 0.97951 0.978806 0.978086 0.977346 0.976586 0.975801 0.974983 0.974125 0.973178 0.972169 0.971195 0.970089 0.969023 0.969023 
1.01772 1.01783 1.01784 1.0177 1.01773 1.01776 1.01766 1.01761 1.0176 1.01757 1.01752 1.01749 1.01746 1.01742 1.01739 1.01735 1.01731 1.01728 1.01723 1.01719 1.01714 1.01709 1.01704 1.01697 1.0169 1.01681 1.01671 1.01659 1.01645 1.01628 1.01607 1.01581 1.01552 1.01516 1.01472 1.01415 1.01338 1.01233 1.01094 1.00926 1.0074 1.00555 1.00389 1.00253 1.00154 1.00087 1.00045 1.00022 1.0001 1.00004 1.00002 1.00001 1 1 1 1 1 1 1 1 1 1 1 1 1 1 1 1 1 1 1 1 1 1 1 1 1 1 0.999999 0.999997 0.999992 0.99998 0.999954 0.999902 0.999806 0.999643 0.999388 0.999017 0.998517 0.997889 0.997151 0.996332 0.995468 0.994591 0.993725 0.992881 0.992065 0.991276 0.99051 0.989764 0.989037 0.988326 0.987629 0.986943 0.986267 0.985598 0.984934 0.984273 0.983614 0.982954 0.982292 0.981626 0.980954 0.980274 0.979584 0.978882 0.978167 0.977434 0.97668 0.975903 0.975094 0.974253 0.973375 0.972429 0.971494 0.970525 0.969493 0.969493 
1.01782 1.01771 1.01767 1.0177 1.01771 1.01764 1.0176 1.0176 1.01756 1.01752 1.01749 1.01746 1.01742 1.01739 1.01736 1.01732 1.01728 1.01724 1.0172 1.01716 1.01711 1.01706 1.017 1.01693 1.01685 1.01676 1.01666 1.01654 1.01639 1.01621 1.01601 1.01576 1.01547 1.01514 1.01473 1.0142 1.01348 1.01248 1.01113 1.00947 1.0076 1.00573 1.00402 1.00263 1.0016 1.0009 1.00047 1.00023 1.0001 1.00004 1.00002 1.00001 1 1 1 1 1 1 1 1 1 1 1 1 1 1 1 1 1 1 1 1 1 1 1 1 1 1 0.999999 0.999997 0.999993 0.999982 0.999957 0.999909 0.999818 0.999664 0.999419 0.999062 0.998576 0.997961 0.997234 0.996422 0.995561 0.994684 0.993817 0.992972 0.992156 0.991366 0.990601 0.989856 0.989129 0.988418 0.987721 0.987034 0.986357 0.985688 0.985023 0.984362 0.983703 0.983043 0.982381 0.981715 0.981044 0.980366 0.979679 0.978981 0.978269 0.977542 0.976797 0.976032 0.97524 0.974414 0.973572 0.972699 0.971782 0.970882 0.96997 0.96997 
1.01763 1.01764 1.01765 1.01765 1.01761 1.01759 1.01758 1.01755 1.01751 1.01749 1.01746 1.01742 1.01739 1.01736 1.01732 1.01729 1.01725 1.01721 1.01717 1.01712 1.01707 1.01702 1.01695 1.01689 1.01681 1.01671 1.01661 1.01648 1.01633 1.01616 1.01595 1.01571 1.01543 1.01512 1.01474 1.01426 1.01359 1.01263 1.01132 1.00967 1.0078 1.00589 1.00415 1.00272 1.00166 1.00094 1.00049 1.00024 1.00011 1.00005 1.00002 1.00001 1 1 1 1 1 1 1 1 1 1 1 1 1 1 1 1 1 1 1 1 1 1 1 1 1 1 0.999999 0.999998 0.999993 0.999984 0.999961 0.999917 0.999833 0.999689 0.999458 0.999117 0.99865 0.998053 0.99734 0.996537 0.995681 0.994805 0.993935 0.993088 0.992269 0.991478 0.990712 0.989967 0.989241 0.988529 0.987831 0.987144 0.986467 0.985796 0.985131 0.98447 0.98381 0.98315 0.982489 0.981824 0.981155 0.980479 0.979794 0.9791 0.978393 0.977673 0.976937 0.976182 0.975408 0.974609 0.973787 0.972953 0.972087 0.97122 0.970365 0.970365 
1.01758 1.01759 1.01759 1.01757 1.01756 1.01755 1.01753 1.0175 1.01747 1.01745 1.01742 1.01739 1.01735 1.01732 1.01729 1.01725 1.01721 1.01717 1.01713 1.01708 1.01703 1.01698 1.01691 1.01684 1.01676 1.01666 1.01655 1.01643 1.01627 1.0161 1.01589 1.01566 1.0154 1.0151 1.01476 1.01433 1.0137 1.01279 1.01151 1.00987 1.00799 1.00605 1.00427 1.00281 1.00171 1.00097 1.00051 1.00025 1.00011 1.00005 1.00002 1.00001 1 1 1 1 1 1 1 1 1 1 1 1 1 1 1 1 1 1 1 1 1 1 1 1 1 1 0.999999 0.999998 0.999994 0.999986 0.999966 0.999926 0.99985 0.999717 0.999502 0.999181 0.998736 0.998162 0.997467 0.996678 0.995829 0.994953 0.994081 0.993229 0.992406 0.991613 0.990845 0.990099 0.989372 0.988659 0.987961 0.987273 0.986594 0.985923 0.985258 0.984596 0.983936 0.983277 0.982616 0.981952 0.981284 0.980611 0.97993 0.979239 0.978538 0.977825 0.977098 0.976354 0.975594 0.974818 0.97402 0.973207 0.972384 0.971548 0.970716 0.970716 
1.01755 1.01753 1.01752 1.01752 1.01751 1.0175 1.01747 1.01745 1.01743 1.01741 1.01738 1.01735 1.01732 1.01729 1.01725 1.01722 1.01718 1.01714 1.01709 1.01705 1.01699 1.01693 1.01687 1.01679 1.01671 1.01661 1.0165 1.01637 1.01622 1.01604 1.01584 1.01561 1.01537 1.0151 1.01479 1.0144 1.01383 1.01295 1.0117 1.01007 1.00817 1.0062 1.00439 1.00288 1.00176 1.001 1.00052 1.00026 1.00012 1.00005 1.00002 1.00001 1 1 1 1 1 1 1 1 1 1 1 1 1 1 1 1 1 1 1 1 1 1 1 1 1 1 0.999999 0.999998 0.999995 0.999988 0.999971 0.999935 0.999867 0.999747 0.99955 0.999252 0.998833 0.998285 0.997614 0.996843 0.996003 0.995131 0.994255 0.993398 0.99257 0.991771 0.991 0.990252 0.989523 0.98881 0.98811 0.987421 0.986742 0.98607 0.985404 0.984741 0.984082 0.983422 0.982762 0.9821 0.981434 0.980763 0.980085 0.979399 0.978704 0.977997 0.977279 0.976547 0.9758 0.97504 0.974265 0.973473 0.972674 0.971866 0.971055 0.971055 
1.01748 1.01747 1.01747 1.01747 1.01746 1.01744 1.01743 1.01741 1.01739 1.01736 1.01734 1.01731 1.01728 1.01725 1.01721 1.01718 1.01714 1.0171 1.01705 1.01701 1.01695 1.01689 1.01682 1.01675 1.01666 1.01656 1.01645 1.01631 1.01616 1.01599 1.01579 1.01557 1.01534 1.0151 1.01483 1.01448 1.01395 1.01312 1.01189 1.01026 1.00834 1.00634 1.00449 1.00295 1.0018 1.00102 1.00054 1.00026 1.00012 1.00005 1.00002 1.00001 1 1 1 1 1 1 1 1 1 1 1 1 1 1 1 1 1 1 1 1 1 1 1 1 1 1 1 0.999999 0.999996 0.99999 0.999975 0.999945 0.999885 0.999778 0.9996 0.999327 0.998938 0.99842 0.997778 0.997029 0.996203 0.995336 0.994459 0.993596 0.99276 0.991955 0.991179 0.990428 0.989697 0.988981 0.98828 0.98759 0.986909 0.986236 0.985569 0.984907 0.984247 0.983588 0.982929 0.982268 0.981604 0.980935 0.980261 0.979579 0.978889 0.97819 0.97748 0.976758 0.976025 0.975278 0.974519 0.973749 0.972968 0.972181 0.971389 0.971389 
1.01743 1.01742 1.01742 1.01742 1.01741 1.0174 1.01738 1.01736 1.01734 1.01732 1.0173 1.01727 1.01724 1.01721 1.01718 1.01714 1.0171 1.01706 1.01701 1.01697 1.01691 1.01685 1.01678 1.0167 1.01661 1.01651 1.01639 1.01626 1.01611 1.01593 1.01574 1.01553 1.01532 1.01511 1.01488 1.01458 1.01409 1.0133 1.01208 1.01045 1.00851 1.00647 1.00459 1.00302 1.00184 1.00104 1.00055 1.00027 1.00012 1.00005 1.00002 1.00001 1 1 1 1 1 1 1 1 1 1 1 1 1 1 1 1 1 1 1 1 1 1 1 1 1 1 1 0.999999 0.999997 0.999992 0.99998 0.999954 0.999902 0.999809 0.999651 0.999405 0.999048 0.998565 0.997956 0.997234 0.996427 0.995569 0.994693 0.993824 0.99298 0.992167 0.991384 0.990627 0.989892 0.989175 0.988471 0.98778 0.987098 0.986424 0.985756 0.985093 0.984432 0.983774 0.983116 0.982456 0.981794 0.981128 0.980457 0.97978 0.979095 0.978402 0.9777 0.976988 0.976265 0.975532 0.974787 0.974033 0.973269 0.972498 0.971723 0.971723 
1.01739 1.01737 1.01737 1.01737 1.01736 1.01735 1.01734 1.01732 1.0173 1.01728 1.01725 1.01723 1.0172 1.01717 1.01714 1.0171 1.01706 1.01702 1.01697 1.01692 1.01687 1.0168 1.01673 1.01665 1.01656 1.01646 1.01634 1.01621 1.01605 1.01588 1.0157 1.0155 1.01531 1.01513 1.01494 1.01468 1.01424 1.01347 1.01227 1.01063 1.00866 1.0066 1.00467 1.00307 1.00187 1.00106 1.00056 1.00027 1.00012 1.00005 1.00002 1.00001 1 1 1 1 1 1 1 1 1 1 1 1 1 1 1 1 1 1 1 1 1 1 1 1 1 1 1 0.999999 0.999998 0.999993 0.999984 0.999962 0.999919 0.999839 0.999701 0.999483 0.999159 0.998715 0.998144 0.997456 0.996674 0.995829 0.994956 0.994084 0.993231 0.992408 0.991616 0.990852 0.990112 0.989391 0.988685 0.987992 0.987308 0.986632 0.985964 0.9853 0.984639 0.983981 0.983323 0.982665 0.982005 0.981341 0.980674 0.980001 0.979321 0.978635 0.97794 0.977236 0.976524 0.975802 0.97507 0.974329 0.973579 0.972823 0.972062 0.972062 
1.01734 1.01733 1.01733 1.01732 1.01732 1.0173 1.01729 1.01728 1.01726 1.01724 1.01721 1.01719 1.01716 1.01713 1.0171 1.01706 1.01702 1.01698 1.01693 1.01688 1.01682 1.01676 1.01668 1.0166 1.01651 1.0164 1.01629 1.01615 1.016 1.01583 1.01565 1.01547 1.01531 1.01516 1.01501 1.0148 1.0144 1.01365 1.01246 1.0108 1.00881 1.00671 1.00475 1.00312 1.0019 1.00107 1.00056 1.00027 1.00012 1.00005 1.00002 1.00001 1 1 1 1 1 1 1 1 1 1 1 1 1 1 1 1 1 1 1 1 1 1 1 1 1 1 1 0.999999 0.999998 0.999995 0.999987 0.99997 0.999934 0.999867 0.999749 0.999558 0.999271 0.998867 0.998339 0.99769 0.996939 0.996114 0.995249 0.994375 0.993514 0.99268 0.991878 0.991105 0.990358 0.989632 0.988923 0.988227 0.987541 0.986864 0.986194 0.985529 0.984868 0.98421 0.983553 0.982896 0.982237 0.981576 0.980912 0.980243 0.979569 0.978888 0.9782 0.977504 0.976801 0.976088 0.975368 0.974639 0.973902 0.973158 0.972408 0.972408 
1.0173 1.01728 1.01728 1.01727 1.01727 1.01726 1.01725 1.01723 1.01721 1.01719 1.01717 1.01715 1.01712 1.01709 1.01705 1.01702 1.01698 1.01694 1.01689 1.01683 1.01677 1.01671 1.01663 1.01655 1.01646 1.01635 1.01623 1.0161 1.01595 1.01578 1.01562 1.01545 1.01531 1.0152 1.0151 1.01493 1.01456 1.01384 1.01265 1.01097 1.00894 1.00681 1.00482 1.00316 1.00193 1.00109 1.00057 1.00028 1.00013 1.00005 1.00002 1.00001 1 1 1 1 1 1 1 1 1 1 1 1 1 1 1 1 1 1 1 1 1 1 1 1 1 1 1 1 0.999999 0.999996 0.99999 0.999976 0.999948 0.999892 0.999794 0.99963 0.999378 0.999018 0.998536 0.997932 0.997218 0.99642 0.99557 0.994698 0.993831 0.992986 0.992172 0.991388 0.990633 0.9899 0.989186 0.988486 0.987798 0.987119 0.986447 0.985781 0.98512 0.984462 0.983805 0.983149 0.982492 0.981834 0.981172 0.980507 0.979837 0.979162 0.978481 0.977792 0.977097 0.976394 0.975683 0.974964 0.974238 0.973506 0.972767 0.972767 
1.01725 1.01723 1.01723 1.01723 1.01722 1.01721 1.0172 1.01719 1.01717 1.01715 1.01713 1.0171 1.01707 1.01705 1.01701 1.01698 1.01693 1.01689 1.01684 1.01679 1.01673 1.01666 1.01658 1.0165 1.0164 1.0163 1.01618 1.01604 1.01589 1.01574 1.01558 1.01544 1.01534 1.01527 1.01521 1.01507 1.01474 1.01402 1.01282 1.01113 1.00907 1.0069 1.00488 1.0032 1.00194 1.0011 1.00057 1.00028 1.00013 1.00005 1.00002 1.00001 1 1 1 1 1 1 1 1 1 1 1 1 1 1 1 1 1 1 1 1 1 1 1 1 1 1 1 1 0.999999 0.999997 0.999993 0.999982 0.99996 0.999915 0.999834 0.999696 0.99948 0.999164 0.998731 0.998176 0.997507 0.996744 0.995915 0.995052 0.994182 0.993328 0.992501 0.991704 0.990938 0.990197 0.989476 0.988772 0.98808 0.987399 0.986725 0.986058 0.985396 0.984737 0.984081 0.983426 0.982771 0.982114 0.981456 0.980794 0.980129 0.979459 0.978783 0.978101 0.977413 0.976719 0.976017 0.975308 0.974592 0.973869 0.97314 0.97314 
1.01721 1.01719 1.01719 1.01718 1.01718 1.01717 1.01716 1.01714 1.01712 1.01711 1.01708 1.01706 1.01703 1.017 1.01697 1.01693 1.01689 1.01685 1.01679 1.01674 1.01668 1.01661 1.01653 1.01645 1.01635 1.01624 1.01612 1.01599 1.01584 1.0157 1.01556 1.01544 1.01537 1.01534 1.01533 1.01523 1.01491 1.01421 1.013 1.01127 1.00918 1.00698 1.00493 1.00323 1.00196 1.0011 1.00058 1.00028 1.00013 1.00005 1.00002 1.00001 1 1 1 1 1 1 1 1 1 1 1 1 1 1 1 1 1 1 1 1 1 1 1 1 1 1 1 1 0.999999 0.999998 0.999995 0.999987 0.999969 0.999935 0.999869 0.999756 0.999575 0.999302 0.99892 0.998419 0.997801 0.99708 0.996281 0.995433 0.994567 0.993707 0.992867 0.992057 0.991277 0.990525 0.989796 0.989086 0.98839 0.987705 0.987029 0.986361 0.985697 0.985038 0.984382 0.983728 0.983074 0.982419 0.981764 0.981105 0.980444 0.979779 0.979108 0.978433 0.977752 0.977065 0.976372 0.975671 0.974965 0.974251 0.973532 0.973532 
1.01716 1.01714 1.01714 1.01713 1.01713 1.01712 1.01711 1.0171 1.01708 1.01706 1.01704 1.01701 1.01699 1.01696 1.01692 1.01689 1.01684 1.0168 1.01675 1.01669 1.01663 1.01656 1.01648 1.01639 1.01629 1.01618 1.01606 1.01593 1.01579 1.01566 1.01554 1.01546 1.01543 1.01544 1.01547 1.0154 1.0151 1.01439 1.01316 1.0114 1.00928 1.00704 1.00497 1.00325 1.00197 1.00111 1.00058 1.00028 1.00013 1.00005 1.00002 1.00001 1 1 1 1 1 1 1 1 1 1 1 1 1 1 1 1 1 1 1 1 1 1 1 1 1 1 1 1 1 0.999999 0.999996 0.99999 0.999978 0.999951 0.9999 0.999809 0.999659 0.999429 0.999099 0.998654 0.998092 0.997421 0.996661 0.995839 0.994983 0.994121 0.993272 0.992448 0.991654 0.990889 0.990149 0.989431 0.988729 0.98804 0.987361 0.98669 0.986026 0.985366 0.98471 0.984056 0.983403 0.98275 0.982097 0.981442 0.980784 0.980123 0.979459 0.978789 0.978115 0.977435 0.976749 0.976057 0.975359 0.974655 0.973944 0.973944 
1.01711 1.01709 1.01709 1.01709 1.01708 1.01707 1.01706 1.01705 1.01703 1.01701 1.01699 1.01697 1.01694 1.01691 1.01687 1.01684 1.01679 1.01675 1.01669 1.01664 1.01657 1.0165 1.01642 1.01633 1.01623 1.01612 1.016 1.01588 1.01575 1.01563 1.01554 1.01549 1.0155 1.01556 1.01562 1.01558 1.01528 1.01456 1.01331 1.01152 1.00936 1.0071 1.005 1.00327 1.00198 1.00112 1.00058 1.00028 1.00013 1.00005 1.00002 1.00001 1 1 1 1 1 1 1 1 1 1 1 1 1 1 1 1 1 1 1 1 1 1 1 1 1 1 1 1 1 0.999999 0.999997 0.999993 0.999984 0.999964 0.999925 0.999854 0.999733 0.999543 0.999263 0.998877 0.998376 0.997762 0.99705 0.996262 0.995427 0.99457 0.993716 0.992881 0.992071 0.991291 0.990539 0.98981 0.9891 0.988406 0.987723 0.987049 0.986383 0.985722 0.985065 0.984412 0.98376 0.983109 0.982458 0.981805 0.981151 0.980495 0.979835 0.979171 0.978503 0.97783 0.977152 0.976468 0.975778 0.975082 0.97438 0.97438 
1.01707 1.01704 1.01704 1.01704 1.01703 1.01702 1.01701 1.017 1.01698 1.01697 1.01694 1.01692 1.01689 1.01686 1.01682 1.01679 1.01674 1.0167 1.01664 1.01658 1.01652 1.01645 1.01636 1.01627 1.01617 1.01606 1.01594 1.01582 1.01571 1.01562 1.01556 1.01555 1.0156 1.0157 1.01579 1.01576 1.01546 1.01473 1.01344 1.01162 1.00943 1.00714 1.00503 1.00328 1.00199 1.00112 1.00058 1.00028 1.00013 1.00005 1.00002 1.00001 1 1 1 1 1 1 1 1 1 1 1 1 1 1 1 1 1 1 1 1 1 1 1 1 1 1 1 1 1 0.999999 0.999998 0.999996 0.999989 0.999975 0.999945 0.999891 0.999797 0.999643 0.999412 0.999083 0.998645 0.998094 0.997439 0.996696 0.995891 0.99505 0.994198 0.993355 0.992532 0.991737 0.990969 0.990228 0.989508 0.988806 0.988117 0.98744 0.986771 0.986108 0.985451 0.984797 0.984146 0.983496 0.982847 0.982198 0.981547 0.980895 0.98024 0.979581 0.978919 0.978253 0.977582 0.976906 0.976224 0.975537 0.974844 0.974844 
1.01702 1.01699 1.01699 1.01699 1.01698 1.01697 1.01696 1.01695 1.01693 1.01691 1.01689 1.01687 1.01684 1.01681 1.01677 1.01673 1.01669 1.01664 1.01659 1.01653 1.01646 1.01639 1.0163 1.01621 1.01611 1.016 1.01589 1.01578 1.01568 1.01562 1.0156 1.01564 1.01573 1.01586 1.01597 1.01595 1.01564 1.01488 1.01356 1.01171 1.00949 1.00718 1.00505 1.00329 1.00199 1.00112 1.00058 1.00028 1.00013 1.00005 1.00002 1.00001 1 1 1 1 1 1 1 1 1 1 1 1 1 1 1 1 1 1 1 1 1 1 1 1 1 1 1 1 1 1 0.999999 0.999997 0.999993 0.999982 0.999961 0.999921 0.999849 0.999729 0.999541 0.999268 0.998894 0.99841 0.997819 0.997132 0.996369 0.995554 0.994714 0.99387 0.993038 0.992228 0.991445 0.990689 0.989956 0.989244 0.988548 0.987865 0.987193 0.986528 0.985869 0.985215 0.984564 0.983916 0.983269 0.982622 0.981974 0.981326 0.980675 0.980022 0.979366 0.978706 0.978042 0.977374 0.976701 0.976022 0.975338 0.975338 
1.01697 1.01694 1.01694 1.01693 1.01693 1.01692 1.01691 1.0169 1.01688 1.01686 1.01684 1.01682 1.01678 1.01675 1.01672 1.01668 1.01663 1.01658 1.01653 1.01647 1.0164 1.01632 1.01624 1.01615 1.01604 1.01594 1.01584 1.01574 1.01568 1.01565 1.01567 1.01575 1.01588 1.01603 1.01615 1.01613 1.0158 1.01501 1.01366 1.01178 1.00954 1.00721 1.00506 1.0033 1.002 1.00112 1.00059 1.00028 1.00013 1.00005 1.00002 1.00001 1 1 1 1 1 1 1 1 1 1 1 1 1 1 1 1 1 1 1 1 1 1 1 1 1 1 1 1 1 1 0.999999 0.999998 0.999995 0.999988 0.999974 0.999945 0.999891 0.999799 0.999652 0.999431 0.999118 0.998704 0.998182 0.997559 0.99685 0.996074 0.995257 0.994421 0.993587 0.992766 0.991969 0.991197 0.99045 0.989725 0.98902 0.98833 0.987652 0.986984 0.986323 0.985668 0.985017 0.984369 0.983724 0.983079 0.982435 0.98179 0.981144 0.980497 0.979847 0.979193 0.978537 0.977876 0.977211 0.976541 0.975867 0.975867 
1.01691 1.01688 1.01688 1.01688 1.01687 1.01686 1.01685 1.01684 1.01682 1.01681 1.01678 1.01676 1.01673 1.0167 1.01666 1.01662 1.01657 1.01652 1.01647 1.01641 1.01633 1.01626 1.01617 1.01608 1.01598 1.01588 1.0158 1.01573 1.01569 1.0157 1.01577 1.01588 1.01604 1.01622 1.01634 1.0163 1.01595 1.01513 1.01375 1.01184 1.00958 1.00723 1.00507 1.00331 1.002 1.00112 1.00059 1.00028 1.00013 1.00005 1.00002 1.00001 1 1 1 1 1 1 1 1 1 1 1 1 1 1 1 1 1 1 1 1 1 1 1 1 1 1 1 1 1 1 1 0.999999 0.999997 0.999992 0.999983 0.999962 0.999924 0.999856 0.999743 0.999569 0.999316 0.998969 0.99852 0.997968 0.997322 0.996599 0.995818 0.995003 0.994175 0.993351 0.992542 0.991756 0.990994 0.990255 0.989538 0.988838 0.988153 0.98748 0.986816 0.986159 0.985507 0.98486 0.984216 0.983573 0.982932 0.982291 0.98165 0.981008 0.980364 0.979717 0.979068 0.978416 0.977759 0.977099 0.976435 0.976435 
1.01685 1.01682 1.01682 1.01681 1.01681 1.0168 1.01679 1.01678 1.01676 1.01675 1.01672 1.0167 1.01667 1.01664 1.0166 1.01656 1.01651 1.01646 1.0164 1.01634 1.01627 1.01619 1.0161 1.01601 1.01592 1.01584 1.01577 1.01574 1.01574 1.01579 1.0159 1.01604 1.01622 1.0164 1.01652 1.01646 1.01608 1.01523 1.01382 1.01189 1.0096 1.00724 1.00508 1.00331 1.002 1.00112 1.00059 1.00028 1.00013 1.00005 1.00002 1.00001 1 1 1 1 1 1 1 1 1 1 1 1 1 1 1 1 1 1 1 1 1 1 1 1 1 1 1 1 1 1 1 0.999999 0.999998 0.999995 0.999989 0.999975 0.999948 0.999899 0.999816 0.999683 0.999483 0.999201 0.998825 0.998349 0.997776 0.997115 0.996385 0.995604 0.994796 0.993977 0.993164 0.992367 0.991591 0.990838 0.990107 0.989396 0.988702 0.988021 0.987352 0.986692 0.986039 0.985392 0.984748 0.984108 0.98347 0.982833 0.982196 0.981559 0.980921 0.980282 0.97964 0.978997 0.97835 0.9777 0.977046 0.977046 
1.01679 1.01675 1.01675 1.01675 1.01675 1.01674 1.01673 1.01672 1.0167 1.01668 1.01666 1.01664 1.0166 1.01657 1.01653 1.01649 1.01644 1.01639 1.01633 1.01627 1.01619 1.01611 1.01603 1.01595 1.01587 1.01581 1.01578 1.01578 1.01583 1.01592 1.01605 1.01622 1.01641 1.01659 1.01668 1.0166 1.01619 1.01531 1.01388 1.01192 1.00962 1.00725 1.00509 1.00331 1.002 1.00112 1.00059 1.00028 1.00013 1.00005 1.00002 1.00001 1 1 1 1 1 1 1 1 1 1 1 1 1 1 1 1 1 1 1 1 1 1 1 1 1 1 1 1 1 1 1 1 0.999999 0.999997 0.999993 0.999984 0.999966 0.999932 0.999873 0.999774 0.999622 0.999399 0.999093 0.998694 0.998198 0.997611 0.996943 0.996212 0.995437 0.994637 0.99383 0.99303 0.992244 0.991478 0.990733 0.990009 0.989304 0.988614 0.987939 0.987274 0.986618 0.985969 0.985326 0.984687 0.984052 0.983418 0.982786 0.982155 0.981524 0.980892 0.980259 0.979624 0.978987 0.978349 0.977707 0.977707 
1.01671 1.01667 1.01667 1.01667 1.01667 1.01667 1.01666 1.01665 1.01663 1.01662 1.01659 1.01657 1.01654 1.01651 1.01647 1.01642 1.01637 1.01632 1.01626 1.01619 1.01612 1.01604 1.01597 1.0159 1.01585 1.01582 1.01582 1.01586 1.01594 1.01607 1.01623 1.01641 1.0166 1.01676 1.01683 1.01672 1.01628 1.01537 1.01392 1.01195 1.00964 1.00726 1.00509 1.00331 1.002 1.00112 1.00059 1.00028 1.00013 1.00005 1.00002 1.00001 1 1 1 1 1 1 1 1 1 1 1 1 1 1 1 1 1 1 1 1 1 1 1 1 1 1 1 1 1 1 1 1 0.999999 0.999998 0.999996 0.99999 0.999979 0.999956 0.999915 0.999844 0.999732 0.999562 0.999321 0.998996 0.99858 0.998072 0.997478 0.99681 0.996084 0.995318 0.994531 0.993737 0.992949 0.992175 0.991418 0.990682 0.989965 0.989265 0.988582 0.987911 0.987251 0.986599 0.985955 0.985317 0.984684 0.984054 0.983426 0.9828 0.982176 0.981552 0.980928 0.980303 0.979678 0.979051 0.978423 0.978423 
1.01664 1.01659 1.01659 1.0166 1.0166 1.01659 1.01658 1.01657 1.01656 1.01654 1.01652 1.0165 1.01647 1.01643 1.01639 1.01635 1.0163 1.01624 1.01618 1.01611 1.01604 1.01598 1.01592 1.01587 1.01585 1.01586 1.0159 1.01598 1.01609 1.01624 1.01642 1.0166 1.01678 1.01691 1.01696 1.01681 1.01635 1.01542 1.01395 1.01196 1.00965 1.00727 1.00509 1.00331 1.002 1.00112 1.00059 1.00028 1.00013 1.00005 1.00002 1.00001 1 1 1 1 1 1 1 1 1 1 1 1 1 1 1 1 1 1 1 1 1 1 1 1 1 1 1 1 1 1 1 1 1 0.999999 0.999998 0.999994 0.999987 0.999973 0.999945 0.999897 0.999816 0.999691 0.999508 0.999252 0.998914 0.998489 0.997976 0.997382 0.99672 0.996004 0.995252 0.994479 0.9937 0.992926 0.992164 0.991418 0.99069 0.98998 0.989287 0.988609 0.987943 0.987289 0.986643 0.986005 0.985373 0.984746 0.984123 0.983503 0.982885 0.98227 0.981655 0.981042 0.980428 0.979815 0.979202 0.979202 
1.01655 1.01649 1.01651 1.01651 1.01651 1.01651 1.01651 1.0165 1.01648 1.01647 1.01644 1.01642 1.01639 1.01636 1.01631 1.01627 1.01622 1.01616 1.0161 1.01604 1.01598 1.01594 1.0159 1.01589 1.0159 1.01594 1.01602 1.01613 1.01627 1.01644 1.01661 1.01678 1.01694 1.01705 1.01706 1.01689 1.0164 1.01545 1.01397 1.01197 1.00965 1.00727 1.00509 1.00332 1.002 1.00112 1.00059 1.00028 1.00013 1.00005 1.00002 1.00001 1 1 1 1 1 1 1 1 1 1 1 1 1 1 1 1 1 1 1 1 1 1 1 1 1 1 1 1 1 1 1 1 1 1 0.999999 0.999997 0.999993 0.999984 0.999966 0.999934 0.999879 0.99979 0.999656 0.999462 0.999197 0.998852 0.998424 0.997913 0.997326 0.996675 0.995975 0.995239 0.994484 0.993722 0.992963 0.992214 0.99148 0.990762 0.99006 0.989375 0.988703 0.988044 0.987396 0.986758 0.986127 0.985502 0.984884 0.98427 0.98366 0.983053 0.982449 0.981847 0.981248 0.98065 0.980054 0.980054 
1.01645 1.01639 1.01641 1.01642 1.01643 1.01642 1.01642 1.01641 1.0164 1.01639 1.01636 1.01634 1.01631 1.01627 1.01623 1.01619 1.01614 1.01609 1.01603 1.01599 1.01595 1.01593 1.01592 1.01594 1.01599 1.01607 1.01617 1.01631 1.01646 1.01663 1.01679 1.01695 1.01708 1.01716 1.01715 1.01695 1.01644 1.01548 1.01398 1.01198 1.00966 1.00727 1.00509 1.00332 1.002 1.00112 1.00059 1.00028 1.00013 1.00005 1.00002 1.00001 1 1 1 1 1 1 1 1 1 1 1 1 1 1 1 1 1 1 1 1 1 1 1 1 1 1 1 1 1 1 1 1 1 1 0.999999 0.999998 0.999996 0.999991 0.99998 0.99996 0.999923 0.999863 0.999768 0.999626 0.999426 0.999158 0.998812 0.998388 0.997885 0.997312 0.996678 0.995997 0.995283 0.994549 0.993806 0.993065 0.992331 0.99161 0.990904 0.990212 0.989536 0.988873 0.988223 0.987583 0.986954 0.986332 0.985718 0.985111 0.984509 0.983912 0.98332 0.982731 0.982147 0.981567 0.98099 0.98099 
1.01634 1.01629 1.01631 1.01632 1.01633 1.01633 1.01633 1.01633 1.01631 1.0163 1.01628 1.01625 1.01622 1.01619 1.01615 1.01611 1.01607 1.01603 1.01599 1.01597 1.01595 1.01596 1.01599 1.01604 1.01612 1.01623 1.01636 1.0165 1.01666 1.01681 1.01696 1.01709 1.01719 1.01725 1.01721 1.01699 1.01647 1.01549 1.01399 1.01199 1.00966 1.00727 1.00509 1.00332 1.002 1.00112 1.00059 1.00028 1.00013 1.00005 1.00002 1.00001 1 1 1 1 1 1 1 1 1 1 1 1 1 1 1 1 1 1 1 1 1 1 1 1 1 1 1 1 1 1 1 1 1 1 1 0.999999 0.999998 0.999995 0.999989 0.999976 0.999954 0.999914 0.99985 0.999751 0.999606 0.999404 0.999137 0.998797 0.998382 0.997895 0.997341 0.99673 0.996073 0.995384 0.994674 0.993954 0.993234 0.992519 0.991814 0.991122 0.990443 0.989778 0.989127 0.988488 0.98786 0.987242 0.986634 0.986034 0.985441 0.984856 0.984277 0.983704 0.983138 0.982577 0.982023 0.982023 
1.01623 1.01618 1.01621 1.01623 1.01624 1.01624 1.01624 1.01624 1.01623 1.01622 1.0162 1.01617 1.01614 1.01612 1.01608 1.01605 1.01602 1.016 1.01599 1.01599 1.016 1.01604 1.0161 1.01619 1.01629 1.01642 1.01656 1.0167 1.01684 1.01698 1.0171 1.0172 1.01728 1.01731 1.01725 1.01702 1.01648 1.0155 1.01399 1.01199 1.00966 1.00727 1.0051 1.00332 1.002 1.00113 1.00059 1.00028 1.00013 1.00005 1.00002 1.00001 1 1 1 1 1 1 1 1 1 1 1 1 1 1 1 1 1 1 1 1 1 1 1 1 1 1 1 1 1 1 1 1 1 1 1 1 0.999999 0.999997 0.999994 0.999987 0.999973 0.999949 0.999907 0.999841 0.99974 0.999596 0.999397 0.999136 0.998807 0.998408 0.997942 0.997412 0.996829 0.996202 0.995543 0.994862 0.994169 0.993473 0.992781 0.992096 0.991422 0.99076 0.99011 0.989474 0.988851 0.988238 0.987637 0.987046 0.986465 0.985893 0.985329 0.984775 0.984228 0.983692 0.983164 0.983164 