# vtk DataFile Version 3.0
LBM simulation at step 30
ASCII
DATASET STRUCTURED_POINTS
DIMENSIONS 128 128 1
ORIGIN 0 0 0
SPACING 1 1 1
POINT_DATA 16384
SCALARS density float
LOOKUP_TABLE default
0.952748 1.01805 1.01993 1.01668 1.01689 1.01703 1.01681 1.0166 1.0164 1.01615 1.01583 1.01542 1.01483 1.01388 1.01234 1.01013 1.00746 1.00484 1.00272 1.00132 1.00054 1.00019 1.00006 1.00001 1 1 1 1 1 1 1 1 1 1 1 1 1 1 1 1 1 1 1 1 1 1 1 1 1 1 1 1 1 1 1 1 1 1 1 1 1 1 1 1 1 1 1 1 1 1 1 1 1 1 1 1 1 1 1 1 1 1 1 1 1 1 1 1 1 1 1 1 1 1 1 1 1 1 1 1 1 1 1 1 1 1 0.999995 0.999969 0.99988 0.999643 0.999134 0.998231 0.996891 0.995196 0.993325 0.991452 0.989666 0.987963 0.986307 0.984674 0.98303 0.981352 0.979678 0.978339 0.975507 0.973317 0.989954 0.989954 
1.02064 1.01865 1.01489 1.01618 1.01704 1.01692 1.0167 1.01651 1.01629 1.01602 1.01566 1.0152 1.01458 1.0137 1.01236 1.01041 1.00795 1.00536 1.00314 1.00159 1.00068 1.00025 1.00008 1.00002 1 1 1 1 1 1 1 1 1 1 1 1 1 1 1 1 1 1 1 1 1 1 1 1 1 1 1 1 1 1 1 1 1 1 1 1 1 1 1 1 1 1 1 1 1 1 1 1 1 1 1 1 1 1 1 1 1 1 1 1 1 1 1 1 1 1 1 1 1 1 1 1 1 1 1 1 1 1 1 1 1 0.999999 0.999992 0.999957 0.999844 0.99956 0.998979 0.997996 0.996599 0.994901 0.993082 0.991284 0.989554 0.987871 0.986213 0.984568 0.982927 0.981218 0.979349 0.977715 0.977429 0.977671 0.974905 0.974905 
1.0279 1.01546 1.01487 1.0174 1.017 1.01655 1.01648 1.01638 1.01614 1.01586 1.01551 1.01507 1.01451 1.01372 1.01253 1.01074 1.00835 1.00575 1.00345 1.00178 1.00079 1.0003 1.00009 1.00003 1.00001 1 1 1 1 1 1 1 1 1 1 1 1 1 1 1 1 1 1 1 1 1 1 1 1 1 1 1 1 1 1 1 1 1 1 1 1 1 1 1 1 1 1 1 1 1 1 1 1 1 1 1 1 1 1 1 1 1 1 1 1 1 1 1 1 1 1 1 1 1 1 1 1 1 1 1 1 1 1 1 1 0.999999 0.99999 0.999952 0.999831 0.999534 0.998933 0.997926 0.996508 0.994796 0.992973 0.991183 0.98947 0.987811 0.986173 0.984523 0.982867 0.981252 0.979658 0.977849 0.976393 0.973634 0.966093 0.966093 
1.01271 1.01702 1.01905 1.01673 1.01606 1.01651 1.01649 1.01622 1.01597 1.01572 1.01539 1.01499 1.01446 1.01375 1.01269 1.01103 1.00873 1.00612 1.00373 1.00196 1.00088 1.00034 1.00011 1.00003 1.00001 1 1 1 1 1 1 1 1 1 1 1 1 1 1 1 1 1 1 1 1 1 1 1 1 1 1 1 1 1 1 1 1 1 1 1 1 1 1 1 1 1 1 1 1 1 1 1 1 1 1 1 1 1 1 1 1 1 1 1 1 1 1 1 1 1 1 1 1 1 1 1 1 1 1 1 1 1 1 1 1 0.999999 0.99999 0.999952 0.999833 0.999539 0.998947 0.997954 0.99655 0.994847 0.993026 0.99123 0.989512 0.987853 0.986228 0.984614 0.982972 0.981268 0.979647 0.978047 0.976049 0.973065 0.967811 0.967811 
1.01691 1.01749 1.0166 1.01615 1.01668 1.01652 1.01619 1.01604 1.01587 1.01561 1.01528 1.01488 1.01438 1.01376 1.01283 1.01132 1.00911 1.00649 1.00402 1.00214 1.00097 1.00038 1.00012 1.00003 1.00001 1 1 1 1 1 1 1 1 1 1 1 1 1 1 1 1 1 1 1 1 1 1 1 1 1 1 1 1 1 1 1 1 1 1 1 1 1 1 1 1 1 1 1 1 1 1 1 1 1 1 1 1 1 1 1 1 1 1 1 1 1 1 1 1 1 1 1 1 1 1 1 1 1 1 1 1 1 1 1 1 0.999999 0.99999 0.999955 0.999845 0.99957 0.99901 0.998061 0.996701 0.99503 0.99322 0.991419 0.989693 0.988033 0.986404 0.984785 0.983176 0.98154 0.979842 0.978017 0.975614 0.973364 0.97122 0.97122 
1.01775 1.01656 1.01613 1.01672 1.01655 1.01613 1.01606 1.01596 1.01573 1.01546 1.01515 1.01476 1.0143 1.01378 1.013 1.01164 1.00951 1.00687 1.00429 1.0023 1.00105 1.00041 1.00014 1.00004 1.00001 1 1 1 1 1 1 1 1 1 1 1 1 1 1 1 1 1 1 1 1 1 1 1 1 1 1 1 1 1 1 1 1 1 1 1 1 1 1 1 1 1 1 1 1 1 1 1 1 1 1 1 1 1 1 1 1 1 1 1 1 1 1 1 1 1 1 1 1 1 1 1 1 1 1 1 1 1 1 1 1 0.999999 0.999992 0.999962 0.999865 0.999621 0.999114 0.998235 0.996951 0.995338 0.993552 0.991746 0.990002 0.988333 0.98671 0.985099 0.983482 0.981852 0.980141 0.978358 0.976315 0.974215 0.972453 0.972453 
1.01617 1.01638 1.01656 1.01638 1.01608 1.01608 1.016 1.01578 1.01556 1.01533 1.01502 1.01464 1.01423 1.01382 1.01321 1.01199 1.00992 1.00723 1.00456 1.00246 1.00113 1.00044 1.00015 1.00004 1.00001 1 1 1 1 1 1 1 1 1 1 1 1 1 1 1 1 1 1 1 1 1 1 1 1 1 1 1 1 1 1 1 1 1 1 1 1 1 1 1 1 1 1 1 1 1 1 1 1 1 1 1 1 1 1 1 1 1 1 1 1 1 1 1 1 1 1 1 1 1 1 1 1 1 1 1 1 1 1 1 1 0.999999 0.999994 0.999969 0.99989 0.999684 0.999243 0.99846 0.997281 0.995755 0.994017 0.992219 0.99046 0.98877 0.987138 0.985536 0.983933 0.98231 0.980608 0.97884 0.9771 0.975188 0.973258 0.973258 
1.01623 1.01622 1.01622 1.01605 1.01603 1.01598 1.01578 1.01562 1.01543 1.01519 1.01486 1.01451 1.01419 1.01392 1.01347 1.01238 1.01034 1.00759 1.0048 1.00259 1.00119 1.00046 1.00015 1.00004 1.00001 1 1 1 1 1 1 1 1 1 1 1 1 1 1 1 1 1 1 1 1 1 1 1 1 1 1 1 1 1 1 1 1 1 1 1 1 1 1 1 1 1 1 1 1 1 1 1 1 1 1 1 1 1 1 1 1 1 1 1 1 1 1 1 1 1 1 1 1 1 1 1 1 1 1 1 1 1 1 1 1 0.999999 0.999995 0.999977 0.999916 0.99975 0.999386 0.998715 0.997668 0.996262 0.994604 0.992835 0.99107 0.989363 0.987716 0.986109 0.984512 0.982905 0.981276 0.979579 0.977881 0.976124 0.974261 0.974261 
1.01621 1.01596 1.01593 1.01593 1.01589 1.01574 1.01561 1.01548 1.01526 1.015 1.0147 1.01441 1.0142 1.01409 1.0138 1.01281 1.01077 1.00793 1.00502 1.00271 1.00124 1.00048 1.00016 1.00004 1.00001 1 1 1 1 1 1 1 1 1 1 1 1 1 1 1 1 1 1 1 1 1 1 1 1 1 1 1 1 1 1 1 1 1 1 1 1 1 1 1 1 1 1 1 1 1 1 1 1 1 1 1 1 1 1 1 1 1 1 1 1 1 1 1 1 1 1 1 1 1 1 1 1 1 1 1 1 1 1 1 1 1 0.999997 0.999984 0.99994 0.999815 0.999528 0.998978 0.998083 0.996831 0.995291 0.993586 0.991837 0.990119 0.988458 0.986844 0.985256 0.983665 0.982075 0.980459 0.978794 0.977131 0.975426 0.975426 
1.0159 1.01574 1.01576 1.01574 1.01565 1.01556 1.01544 1.01528 1.01505 1.01482 1.01456 1.01436 1.01429 1.01435 1.0142 1.01326 1.01118 1.00823 1.0052 1.0028 1.00128 1.0005 1.00016 1.00004 1.00001 1 1 1 1 1 1 1 1 1 1 1 1 1 1 1 1 1 1 1 1 1 1 1 1 1 1 1 1 1 1 1 1 1 1 1 1 1 1 1 1 1 1 1 1 1 1 1 1 1 1 1 1 1 1 1 1 1 1 1 1 1 1 1 1 1 1 1 1 1 1 1 1 1 1 1 1 1 1 1 1 1 0.999998 0.99999 0.99996 0.999871 0.999658 0.999229 0.998498 0.997425 0.996043 0.994447 0.99275 0.991044 0.989376 0.987756 0.986176 0.984612 0.983047 0.981482 0.979889 0.978286 0.976681 0.976681 
1.01567 1.01548 1.01552 1.01549 1.01543 1.01535 1.01522 1.01505 1.01485 1.01465 1.01447 1.01441 1.01451 1.01472 1.01466 1.01372 1.01156 1.00849 1.00535 1.00287 1.00131 1.0005 1.00016 1.00004 1.00001 1 1 1 1 1 1 1 1 1 1 1 1 1 1 1 1 1 1 1 1 1 1 1 1 1 1 1 1 1 1 1 1 1 1 1 1 1 1 1 1 1 1 1 1 1 1 1 1 1 1 1 1 1 1 1 1 1 1 1 1 1 1 1 1 1 1 1 1 1 1 1 1 1 1 1 1 1 1 1 1 1 0.999999 0.999994 0.999975 0.999917 0.999768 0.999453 0.998886 0.998009 0.99682 0.995378 0.993781 0.992123 0.990471 0.988857 0.987285 0.985745 0.984217 0.982694 0.981173 0.979643 0.978114 0.978114 
1.01536 1.01519 1.01525 1.01523 1.01519 1.0151 1.01497 1.01484 1.01468 1.01456 1.01451 1.0146 1.01485 1.01517 1.01515 1.01416 1.01189 1.00869 1.00545 1.00291 1.00132 1.00051 1.00017 1.00004 1.00001 1 1 1 1 1 1 1 1 1 1 1 1 1 1 1 1 1 1 1 1 1 1 1 1 1 1 1 1 1 1 1 1 1 1 1 1 1 1 1 1 1 1 1 1 1 1 1 1 1 1 1 1 1 1 1 1 1 1 1 1 1 1 1 1 1 1 1 1 1 1 1 1 1 1 1 1 1 1 1 1 1 0.999999 0.999997 0.999986 0.999951 0.999854 0.999637 0.999224 0.998546 0.997573 0.99633 0.994884 0.993323 0.991724 0.990138 0.988586 0.987073 0.985589 0.984122 0.982668 0.981222 0.979781 0.979781 
1.01497 1.01491 1.01498 1.01497 1.01494 1.01487 1.01478 1.0147 1.01463 1.01463 1.01473 1.01496 1.01532 1.01568 1.01562 1.01454 1.01214 1.00884 1.00552 1.00294 1.00133 1.00051 1.00017 1.00004 1.00001 1 1 1 1 1 1 1 1 1 1 1 1 1 1 1 1 1 1 1 1 1 1 1 1 1 1 1 1 1 1 1 1 1 1 1 1 1 1 1 1 1 1 1 1 1 1 1 1 1 1 1 1 1 1 1 1 1 1 1 1 1 1 1 1 1 1 1 1 1 1 1 1 1 1 1 1 1 1 1 1 1 1 0.999999 0.999993 0.999973 0.999916 0.999778 0.999497 0.999007 0.998258 0.997244 0.996 0.994593 0.993096 0.991574 0.990066 0.98859 0.987154 0.985749 0.984369 0.983013 0.981674 0.981674 
1.01469 1.01475 1.0148 1.0148 1.01479 1.01476 1.01473 1.01473 1.01477 1.0149 1.01512 1.01544 1.01584 1.01618 1.01604 1.01484 1.01233 1.00894 1.00557 1.00296 1.00134 1.00051 1.00017 1.00005 1.00001 1 1 1 1 1 1 1 1 1 1 1 1 1 1 1 1 1 1 1 1 1 1 1 1 1 1 1 1 1 1 1 1 1 1 1 1 1 1 1 1 1 1 1 1 1 1 1 1 1 1 1 1 1 1 1 1 1 1 1 1 1 1 1 1 1 1 1 1 1 1 1 1 1 1 1 1 1 1 1 1 1 1 0.999999 0.999997 0.999987 0.999957 0.999877 0.999701 0.999373 0.998838 0.998066 0.997061 0.995862 0.994527 0.99312 0.991692 0.990277 0.988896 0.987553 0.986248 0.984981 0.983749 0.983749 
1.01466 1.01482 1.01483 1.01483 1.01484 1.01486 1.0149 1.01499 1.01513 1.01535 1.01564 1.01599 1.01635 1.01661 1.01636 1.01505 1.01245 1.009 1.00559 1.00296 1.00134 1.00051 1.00017 1.00005 1.00001 1 1 1 1 1 1 1 1 1 1 1 1 1 1 1 1 1 1 1 1 1 1 1 1 1 1 1 1 1 1 1 1 1 1 1 1 1 1 1 1 1 1 1 1 1 1 1 1 1 1 1 1 1 1 1 1 1 1 1 1 1 1 1 1 1 1 1 1 1 1 1 1 1 1 1 1 1 1 1 1 1 1 1 0.999999 0.999995 0.99998 0.999939 0.99984 0.99964 0.999291 0.99875 0.997999 0.997049 0.995935 0.994706 0.993415 0.992105 0.990807 0.989542 0.988322 0.98715 0.986037 0.986037 
1.01495 1.01516 1.01513 1.01513 1.01515 1.01521 1.0153 1.01546 1.01565 1.01591 1.01619 1.0165 1.01679 1.01695 1.01659 1.01519 1.01252 1.00902 1.0056 1.00297 1.00134 1.00051 1.00017 1.00005 1.00001 1 1 1 1 1 1 1 1 1 1 1 1 1 1 1 1 1 1 1 1 1 1 1 1 1 1 1 1 1 1 1 1 1 1 1 1 1 1 1 1 1 1 1 1 1 1 1 1 1 1 1 1 1 1 1 1 1 1 1 1 1 1 1 1 1 1 1 1 1 1 1 1 1 1 1 1 1 1 1 1 1 1 1 1 0.999998 0.999992 0.999973 0.999924 0.999816 0.99961 0.999267 0.998758 0.998072 0.997219 0.99623 0.995144 0.994005 0.99285 0.991711 0.990611 0.989568 0.988602 0.988602 
1.01549 1.0157 1.01565 1.01564 1.01567 1.01575 1.01587 1.01603 1.01623 1.01646 1.01669 1.01691 1.0171 1.01716 1.01672 1.01526 1.01255 1.00904 1.0056 1.00297 1.00134 1.00051 1.00017 1.00005 1.00001 1 1 1 1 1 1 1 1 1 1 1 1 1 1 1 1 1 1 1 1 1 1 1 1 1 1 1 1 1 1 1 1 1 1 1 1 1 1 1 1 1 1 1 1 1 1 1 1 1 1 1 1 1 1 1 1 1 1 1 1 1 1 1 1 1 1 1 1 1 1 1 1 1 1 1 1 1 1 1 1 1 1 1 1 0.999999 0.999997 0.99999 0.999969 0.999917 0.999811 0.999618 0.999311 0.998867 0.998281 0.997563 0.996737 0.995836 0.994895 0.99395 0.993032 0.992168 0.991387 0.991387 
1.01612 1.0163 1.01624 1.01623 1.01626 1.01633 1.01643 1.01658 1.01673 1.0169 1.01705 1.01719 1.0173 1.01729 1.01679 1.01529 1.01256 1.00904 1.0056 1.00297 1.00134 1.00051 1.00017 1.00005 1.00001 1 1 1 1 1 1 1 1 1 1 1 1 1 1 1 1 1 1 1 1 1 1 1 1 1 1 1 1 1 1 1 1 1 1 1 1 1 1 1 1 1 1 1 1 1 1 1 1 1 1 1 1 1 1 1 1 1 1 1 1 1 1 1 1 1 1 1 1 1 1 1 1 1 1 1 1 1 1 1 1 1 1 1 1 1 0.999999 0.999997 0.999989 0.999968 0.99992 0.999826 0.999664 0.999412 0.999057 0.998598 0.998042 0.99741 0.996728 0.996027 0.995339 0.994694 0.994123 0.994123 
1.01667 1.0168 1.01676 1.01674 1.01677 1.01682 1.01689 1.01699 1.01709 1.01719 1.01727 1.01735 1.0174 1.01734 1.01682 1.0153 1.01257 1.00904 1.0056 1.00297 1.00134 1.00051 1.00017 1.00005 1.00001 1 1 1 1 1 1 1 1 1 1 1 1 1 1 1 1 1 1 1 1 1 1 1 1 1 1 1 1 1 1 1 1 1 1 1 1 1 1 1 1 1 1 1 1 1 1 1 1 1 1 1 1 1 1 1 1 1 1 1 1 1 1 1 1 1 1 1 1 1 1 1 1 1 1 1 1 1 1 1 1 1 1 1 1 1 1 0.999999 0.999997 0.99999 0.999972 0.999932 0.999859 0.999735 0.99955 0.999294 0.998969 0.998583 0.998151 0.997697 0.997244 0.99682 0.99645 0.99645 
1.01706 1.01714 1.01711 1.0171 1.01712 1.01715 1.01719 1.01725 1.0173 1.01735 1.01739 1.01742 1.01745 1.01737 1.01683 1.01531 1.01257 1.00904 1.0056 1.00297 1.00134 1.00051 1.00017 1.00005 1.00001 1 1 1 1 1 1 1 1 1 1 1 1 1 1 1 1 1 1 1 1 1 1 1 1 1 1 1 1 1 1 1 1 1 1 1 1 1 1 1 1 1 1 1 1 1 1 1 1 1 1 1 1 1 1 1 1 1 1 1 1 1 1 1 1 1 1 1 1 1 1 1 1 1 1 1 1 1 1 1 1 1 1 1 1 1 1 1 0.999999 0.999997 0.999992 0.999978 0.99995 0.999898 0.999815 0.999694 0.99953 0.999327 0.999093 0.998838 0.998581 0.998338 0.998129 0.998129 
1.01729 1.01733 1.01732 1.01731 1.01732 1.01734 1.01735 1.01738 1.0174 1.01743 1.01744 1.01745 1.01746 1.01737 1.01683 1.01531 1.01257 1.00904 1.0056 1.00297 1.00134 1.00051 1.00017 1.00005 1.00001 1 1 1 1 1 1 1 1 1 1 1 1 1 1 1 1 1 1 1 1 1 1 1 1 1 1 1 1 1 1 1 1 1 1 1 1 1 1 1 1 1 1 1 1 1 1 1 1 1 1 1 1 1 1 1 1 1 1 1 1 1 1 1 1 1 1 1 1 1 1 1 1 1 1 1 1 1 1 1 1 1 1 1 1 1 1 1 1 0.999999 0.999998 0.999994 0.999985 0.999967 0.999936 0.999887 0.999817 0.999727 0.999617 0.999496 0.99937 0.999251 0.999149 0.999149 
1.0174 1.01742 1.01742 1.01741 1.01741 1.01742 1.01743 1.01744 1.01744 1.01746 1.01746 1.01746 1.01747 1.01738 1.01683 1.01531 1.01257 1.00904 1.0056 1.00297 1.00134 1.00051 1.00017 1.00005 1.00001 1 1 1 1 1 1 1 1 1 1 1 1 1 1 1 1 1 1 1 1 1 1 1 1 1 1 1 1 1 1 1 1 1 1 1 1 1 1 1 1 1 1 1 1 1 1 1 1 1 1 1 1 1 1 1 1 1 1 1 1 1 1 1 1 1 1 1 1 1 1 1 1 1 1 1 1 1 1 1 1 1 1 1 1 1 1 1 1 1 1 0.999999 0.999996 0.999991 0.999982 0.999965 0.99994 0.999906 0.999863 0.999814 0.999761 0.999712 0.999669 0.999669 
1.01744 1.01745 1.01745 1.01745 1.01745 1.01746 1.01745 1.01746 1.01746 1.01747 1.01746 1.01747 1.01747 1.01738 1.01683 1.01531 1.01257 1.00904 1.0056 1.00297 1.00134 1.00051 1.00017 1.00005 1.00001 1 1 1 1 1 1 1 1 1 1 1 1 1 1 1 1 1 1 1 1 1 1 1 1 1 1 1 1 1 1 1 1 1 1 1 1 1 1 1 1 1 1 1 1 1 1 1 1 1 1 1 1 1 1 1 1 1 1 1 1 1 1 1 1 1 1 1 1 1 1 1 1 1 1 1 1 1 1 1 1 1 1 1 1 1 1 1 1 1 1 1 0.999999 0.999998 0.999996 0.999991 0.999984 0.999973 0.999959 0.999942 0.999924 0.999906 0.999891 0.999891 
1.01746 1.01746 1.01747 1.01746 1.01746 1.01747 1.01746 1.01747 1.01746 1.01747 1.01746 1.01747 1.01747 1.01738 1.01683 1.01531 1.01257 1.00904 1.0056 1.00297 1.00134 1.00051 1.00017 1.00005 1.00001 1 1 1 1 1 1 1 1 1 1 1 1 1 1 1 1 1 1 1 1 1 1 1 1 1 1 1 1 1 1 1 1 1 1 1 1 1 1 1 1 1 1 1 1 1 1 1 1 1 1 1 1 1 1 1 1 1 1 1 1 1 1 1 1 1 1 1 1 1 1 1 1 1 1 1 1 1 1 1 1 1 1 1 1 1 1 1 1 1 1 1 1 1 0.999999 0.999998 0.999996 0.999994 0.99999 0.999985 0.99998 0.999974 0.99997 0.99997 
1.01746 1.01746 1.01747 1.01747 1.01747 1.01747 1.01746 1.01747 1.01746 1.01747 1.01746 1.01747 1.01747 1.01738 1.01683 1.01531 1.01257 1.00904 1.0056 1.00297 1.00134 1.00051 1.00017 1.00005 1.00001 1 1 1 1 1 1 1 1 1 1 1 1 1 1 1 1 1 1 1 1 1 1 1 1 1 1 1 1 1 1 1 1 1 1 1 1 1 1 1 1 1 1 1 1 1 1 1 1 1 1 1 1 1 1 1 1 1 1 1 1 1 1 1 1 1 1 1 1 1 1 1 1 1 1 1 1 1 1 1 1 1 1 1 1 1 1 1 1 1 1 1 1 1 1 1 0.999999 0.999999 0.999998 0.999997 0.999995 0.999994 0.999993 0.999993 
1.01746 1.01746 1.01747 1.01747 1.01747 1.01747 1.01746 1.01747 1.01746 1.01747 1.01746 1.01747 1.01747 1.01738 1.01683 1.01531 1.01257 1.00904 1.0056 1.00297 1.00134 1.00051 1.00017 1.00005 1.00001 1 1 1 1 1 1 1 1 1 1 1 1 1 1 1 1 1 1 1 1 1 1 1 1 1 1 1 1 1 1 1 1 1 1 1 1 1 1 1 1 1 1 1 1 1 1 1 1 1 1 1 1 1 1 1 1 1 1 1 1 1 1 1 1 1 1 1 1 1 1 1 1 1 1 1 1 1 1 1 1 1 1 1 1 1 1 1 1 1 1 1 1 1 1 1 1 1 1 0.999999 0.999999 0.999999 0.999999 0.999999 
1.01746 1.01746 1.01747 1.01747 1.01747 1.01747 1.01746 1.01747 1.01746 1.01747 1.01746 1.01747 1.01747 1.01738 1.01683 1.01531 1.01257 1.00904 1.0056 1.00297 1.00134 1.00051 1.00017 1.00005 1.00001 1 1 1 1 1 1 1 1 1 1 1 1 1 1 1 1 1 1 1 1 1 1 1 1 1 1 1 1 1 1 1 1 1 1 1 1 1 1 1 1 1 1 1 1 1 1 1 1 1 1 1 1 1 1 1 1 1 1 1 1 1 1 1 1 1 1 1 1 1 1 1 1 1 1 1 1 1 1 1 1 1 1 1 1 1 1 1 1 1 1 1 1 1 1 1 1 1 1 1 1 1 1 1 
1.01746 1.01746 1.01747 1.01747 1.01747 1.01747 1.01746 1.01747 1.01746 1.01747 1.01746 1.01747 1.01747 1.01738 1.01683 1.01531 1.01257 1.00904 1.0056 1.00297 1.00134 1.00051 1.00017 1.00005 1.00001 1 1 1 1 1 1 1 1 1 1 1 1 1 1 1 1 1 1 1 1 1 1 1 1 1 1 1 1 1 1 1 1 1 1 1 1 1 1 1 1 1 1 1 1 1 1 1 1 1 1 1 1 1 1 1 1 1 1 1 1 1 1 1 1 1 1 1 1 1 1 1 1 1 1 1 1 1 1 1 1 1 1 1 1 1 1 1 1 1 1 1 1 1 1 1 1 1 1 1 1 1 1 1 
1.01746 1.01746 1.01747 1.01747 1.01747 1.01747 1.01746 1.01747 1.01746 1.01747 1.01746 1.01747 1.01747 1.01738 1.01683 1.01531 1.01257 1.00904 1.0056 1.00297 1.00134 1.00051 1.00017 1.00005 1.00001 1 1 1 1 1 1 1 1 1 1 1 1 1 1 1 1 1 1 1 1 1 1 1 1 1 1 1 1 1 1 1 1 1 1 1 1 1 1 1 1 1 1 1 1 1 1 1 1 1 1 1 1 1 1 1 1 1 1 1 1 1 1 1 1 1 1 1 1 1 1 1 1 1 1 1 1 1 1 1 1 1 1 1 1 1 1 1 1 1 1 1 1 1 1 1 1 1 1 1 1 1 1 1 
1.01746 1.01746 1.01747 1.01747 1.01747 1.01747 1.01746 1.01747 1.01746 1.01747 1.01746 1.01747 1.01747 1.01738 1.01683 1.01531 1.01257 1.00904 1.0056 1.00297 1.00134 1.00051 1.00017 1.00005 1.00001 1 1 1 1 1 1 1 1 1 1 1 1 1 1 1 1 1 1 1 1 1 1 1 1 1 1 1 1 1 1 1 1 1 1 1 1 1 1 1 1 1 1 1 1 1 1 1 1 1 1 1 1 1 1 1 1 1 1 1 1 1 1 1 1 1 1 1 1 1 1 1 1 1 1 1 1 1 1 1 1 1 1 1 1 1 1 1 1 1 1 1 1 1 1 1 1 1 1 1 1 1 1 1 
1.01746 1.01746 1.01747 1.01747 1.01747 1.01747 1.01746 1.01747 1.01746 1.01747 1.01746 1.01747 1.01747 1.01738 1.01683 1.01531 1.01257 1.00904 1.0056 1.00297 1.00134 1.00051 1.00017 1.00005 1.00001 1 1 1 1 1 1 1 1 1 1 1 1 1 1 1 1 1 1 1 1 1 1 1 1 1 1 1 1 1 1 1 1 1 1 1 1 1 1 1 1 1 1 1 1 1 1 1 1 1 1 1 1 1 1 1 1 1 1 1 1 1 1 1 1 1 1 1 1 1 1 1 1 1 1 1 1 1 1 1 1 1 1 1 1 1 1 1 1 1 1 1 1 1 1 1 1 1 1 1 1 1 1 1 
1.01746 1.01746 1.01747 1.01747 1.01747 1.01747 1.01746 1.01747 1.01746 1.01747 1.01746 1.01747 1.01747 1.01738 1.01683 1.01531 1.01257 1.00904 1.0056 1.00297 1.00134 1.00051 1.00017 1.00005 1.00001 1 1 1 1 1 1 1 1 1 1 1 1 1 1 1 1 1 1 1 1 1 1 1 1 1 1 1 1 1 1 1 1 1 1 1 1 1 1 1 1 1 1 1 1 1 1 1 1 1 1 1 1 1 1 1 1 1 1 1 1 1 1 1 1 1 1 1 1 1 1 1 1 1 1 1 1 1 1 1 1 1 1 1 1 1 1 1 1 1 1 1 1 1 1 1 1 1 1 1 1 1 1 1 
1.01746 1.01746 1.01747 1.01747 1.01747 1.01747 1.01746 1.01747 1.01746 1.01747 1.01746 1.01747 1.01747 1.01738 1.01683 1.01531 1.01257 1.00904 1.0056 1.00297 1.00134 1.00051 1.00017 1.00005 1.00001 1 1 1 1 1 1 1 1 1 1 1 1 1 1 1 1 1 1 1 1 1 1 1 1 1 1 1 1 1 1 1 1 1 1 1 1 1 1 1 1 1 1 1 1 1 1 1 1 1 1 1 1 1 1 1 1 1 1 1 1 1 1 1 1 1 1 1 1 1 1 1 1 1 1 1 1 1 1 1 1 1 1 1 1 1 1 1 1 1 1 1 1 1 1 1 1 1 1 1 1 1 1 1 
1.01746 1.01746 1.01747 1.01747 1.01747 1.01747 1.01746 1.01747 1.01746 1.01747 1.01746 1.01747 1.01747 1.01738 1.01683 1.01531 1.01257 1.00904 1.0056 1.00297 1.00134 1.00051 1.00017 1.00005 1.00001 1 1 1 1 1 1 1 1 1 1 1 1 1 1 1 1 1 1 1 1 1 1 1 1 1 1 1 1 1 1 1 1 1 1 1 1 1 1 1 1 1 1 1 1 1 1 1 1 1 1 1 1 1 1 1 1 1 1 1 1 1 1 1 1 1 1 1 1 1 1 1 1 1 1 1 1 1 1 1 1 1 1 1 1 1 1 1 1 1 1 1 1 1 1 1 1 1 1 1 1 1 1 1 
1.01746 1.01746 1.01747 1.01747 1.01747 1.01747 1.01746 1.01747 1.01746 1.01747 1.01746 1.01747 1.01747 1.01738 1.01683 1.01531 1.01257 1.00904 1.0056 1.00297 1.00134 1.00051 1.00017 1.00005 1.00001 1 1 1 1 1 1 1 1 1 1 1 1 1 1 1 1 1 1 1 1 1 1 1 1 1 1 1 1 1 1 1 1 1 1 1 1 1 1 1 1 1 1 1 1 1 1 1 1 1 1 1 1 1 1 1 1 1 1 1 1 1 1 1 1 1 1 1 1 1 1 1 1 1 1 1 1 1 1 1 1 1 1 1 1 1 1 1 1 1 1 1 1 1 1 1 1 1 1 1 1 1 1 1 
1.01746 1.01746 1.01747 1.01747 1.01747 1.01747 1.01746 1.01747 1.01746 1.01747 1.01746 1.01747 1.01747 1.01738 1.01683 1.01531 1.01257 1.00904 1.0056 1.00297 1.00134 1.00051 1.00017 1.00005 1.00001 1 1 1 1 1 1 1 1 1 1 1 1 1 1 1 1 1 1 1 1 1 1 1 1 1 1 1 1 1 1 1 1 1 1 1 1 1 1 1 1 1 1 1 1 1 1 1 1 1 1 1 1 1 1 1 1 1 1 1 1 1 1 1 1 1 1 1 1 1 1 1 1 1 1 1 1 1 1 1 1 1 1 1 1 1 1 1 1 1 1 1 1 1 1 1 1 1 1 1 1 1 1 1 
1.01746 1.01746 1.01747 1.01747 1.01747 1.01747 1.01746 1.01747 1.01746 1.01747 1.01746 1.01747 1.01747 1.01738 1.01683 1.01531 1.01257 1.00904 1.0056 1.00297 1.00134 1.00051 1.00017 1.00005 1.00001 1 1 1 1 1 1 1 1 1 1 1 1 1 1 1 1 1 1 1 1 1 1 1 1 1 1 1 1 1 1 1 1 1 1 1 1 1 1 1 1 1 1 1 1 1 1 1 1 1 1 1 1 1 1 1 1 1 1 1 1 1 1 1 1 1 1 1 1 1 1 1 1 1 1 1 1 1 1 1 1 1 1 1 1 1 1 1 1 1 1 1 1 1 1 1 1 1 1 1 1 1 1 1 
1.01746 1.01746 1.01747 1.01747 1.01747 1.01747 1.01746 1.01747 1.01746 1.01747 1.01746 1.01747 1.01747 1.01738 1.01683 1.01531 1.01257 1.00904 1.0056 1.00297 1.00134 1.00051 1.00017 1.00005 1.00001 1 1 1 1 1 1 1 1 1 1 1 1 1 1 1 1 1 1 1 1 1 1 1 1 1 1 1 1 1 1 1 1 1 1 1 1 1 1 1 1 1 1 1 1 1 1 1 1 1 1 1 1 1 1 1 1 1 1 1 1 1 1 1 1 1 1 1 1 1 1 1 1 1 1 1 1 1 1 1 1 1 1 1 1 1 1 1 1 1 1 1 1 1 1 1 1 1 1 1 1 1 1 1 
1.01746 1.01746 1.01747 1.01747 1.01747 1.01747 1.01746 1.01747 1.01746 1.01747 1.01746 1.01747 1.01747 1.01738 1.01683 1.01531 1.01257 1.00904 1.0056 1.00297 1.00134 1.00051 1.00017 1.00005 1.00001 1 1 1 1 1 1 1 1 1 1 1 1 1 1 1 1 1 1 1 1 1 1 1 1 1 1 1 1 1 1 1 1 1 1 1 1 1 1 1 1 1 1 1 1 1 1 1 1 1 1 1 1 1 1 1 1 1 1 1 1 1 1 1 1 1 1 1 1 1 1 1 1 1 1 1 1 1 1 1 1 1 1 1 1 1 1 1 1 1 1 1 1 1 1 1 1 1 1 1 1 1 1 1 
1.01746 1.01746 1.01747 1.01747 1.01747 1.01747 1.01746 1.01747 1.01746 1.01747 1.01746 1.01747 1.01747 1.01738 1.01683 1.01531 1.01257 1.00904 1.0056 1.00297 1.00134 1.00051 1.00017 1.00005 1.00001 1 1 1 1 1 1 1 1 1 1 1 1 1 1 1 1 1 1 1 1 1 1 1 1 1 1 1 1 1 1 1 1 1 1 1 1 1 1 1 1 1 1 1 1 1 1 1 1 1 1 1 1 1 1 1 1 1 1 1 1 1 1 1 1 1 1 1 1 1 1 1 1 1 1 1 1 1 1 1 1 1 1 1 1 1 1 1 1 1 1 1 1 1 1 1 1 1 1 1 1 1 1 1 
1.01746 1.01746 1.01747 1.01747 1.01747 1.01747 1.01746 1.01747 1.01746 1.01747 1.01746 1.01747 1.01747 1.01738 1.01683 1.01531 1.01257 1.00904 1.0056 1.00297 1.00134 1.00051 1.00017 1.00005 1.00001 1 1 1 1 1 1 1 1 1 1 1 1 1 1 1 1 1 1 1 1 1 1 1 1 1 1 1 1 1 1 1 1 1 1 1 1 1 1 1 1 1 1 1 1 1 1 1 1 1 1 1 1 1 1 1 1 1 1 1 1 1 1 1 1 1 1 1 1 1 1 1 1 1 1 1 1 1 1 1 1 1 1 1 1 1 1 1 1 1 1 1 1 1 1 1 1 1 1 1 1 1 1 1 
1.01746 1.01746 1.01747 1.01747 1.01747 1.01747 1.01746 1.01747 1.01746 1.01747 1.01746 1.01747 1.01747 1.01738 1.01683 1.01531 1.01257 1.00904 1.0056 1.00297 1.00134 1.00051 1.00017 1.00005 1.00001 1 1 1 1 1 1 1 1 1 1 1 1 1 1 1 1 1 1 1 1 1 1 1 1 1 1 1 1 1 1 1 1 1 1 1 1 1 1 1 1 1 1 1 1 1 1 1 1 1 1 1 1 1 1 1 1 1 1 1 1 1 1 1 1 1 1 1 1 1 1 1 1 1 1 1 1 1 1 1 1 1 1 1 1 1 1 1 1 1 1 1 1 1 1 1 1 1 1 1 1 1 1 1 
1.01746 1.01746 1.01747 1.01747 1.01747 1.01747 1.01746 1.01747 1.01746 1.01747 1.01746 1.01747 1.01747 1.01738 1.01683 1.01531 1.01257 1.00904 1.0056 1.00297 1.00134 1.00051 1.00017 1.00005 1.00001 1 1 1 1 1 1 1 1 1 1 1 1 1 1 1 1 1 1 1 1 1 1 1 1 1 1 1 1 1 1 1 1 1 1 1 1 1 1 1 1 1 1 1 1 1 1 1 1 1 1 1 1 1 1 1 1 1 1 1 1 1 1 1 1 1 1 1 1 1 1 1 1 1 1 1 1 1 1 1 1 1 1 1 1 1 1 1 1 1 1 1 1 1 1 1 1 1 1 1 1 1 1 1 
1.01746 1.01746 1.01747 1.01747 1.01747 1.01747 1.01746 1.01747 1.01746 1.01747 1.01746 1.01747 1.01747 1.01738 1.01683 1.01531 1.01257 1.00904 1.0056 1.00297 1.00134 1.00051 1.00017 1.00005 1.00001 1 1 1 1 1 1 1 1 1 1 1 1 1 1 1 1 1 1 1 1 1 1 1 1 1 1 1 1 1 1 1 1 1 1 1 1 1 1 1 1 1 1 1 1 1 1 1 1 1 1 1 1 1 1 1 1 1 1 1 1 1 1 1 1 1 1 1 1 1 1 1 1 1 1 1 1 1 1 1 1 1 1 1 1 1 1 1 1 1 1 1 1 1 1 1 1 1 1 1 1 1 1 1 
1.01746 1.01746 1.01747 1.01747 1.01747 1.01747 1.01746 1.01747 1.01746 1.01747 1.01746 1.01747 1.01747 1.01738 1.01683 1.01531 1.01257 1.00904 1.0056 1.00297 1.00134 1.00051 1.00017 1.00005 1.00001 1 1 1 1 1 1 1 1 1 1 1 1 1 1 1 1 1 1 1 1 1 1 1 1 1 1 1 1 1 1 1 1 1 1 1 1 1 1 1 1 1 1 1 1 1 1 1 1 1 1 1 1 1 1 1 1 1 1 1 1 1 1 1 1 1 1 1 1 1 1 1 1 1 1 1 1 1 1 1 1 1 1 1 1 1 1 1 1 1 1 1 1 1 1 1 1 1 1 1 1 1 1 1 
1.01746 1.01746 1.01747 1.01747 1.01747 1.01747 1.01746 1.01747 1.01746 1.01747 1.01746 1.01747 1.01747 1.01738 1.01683 1.01531 1.01257 1.00904 1.0056 1.00297 1.00134 1.00051 1.00017 1.00005 1.00001 1 1 1 1 1 1 1 1 1 1 1 1 1 1 1 1 1 1 1 1 1 1 1 1 1 1 1 1 1 1 1 1 1 1 1 1 1 1 1 1 1 1 1 1 1 1 1 1 1 1 1 1 1 1 1 1 1 1 1 1 1 1 1 1 1 1 1 1 1 1 1 1 1 1 1 1 1 1 1 1 1 1 1 1 1 1 1 1 1 1 1 1 1 1 1 1 1 1 1 1 1 1 1 
1.01746 1.01746 1.01747 1.01747 1.01747 1.01747 1.01746 1.01747 1.01746 1.01747 1.01746 1.01747 1.01747 1.01738 1.01683 1.01531 1.01257 1.00904 1.0056 1.00297 1.00134 1.00051 1.00017 1.00005 1.00001 1 1 1 1 1 1 1 1 1 1 1 1 1 1 1 1 1 1 1 1 1 1 1 1 1 1 1 1 1 1 1 1 1 1 1 1 1 1 1 1 1 1 1 1 1 1 1 1 1 1 1 1 1 1 1 1 1 1 1 1 1 1 1 1 1 1 1 1 1 1 1 1 1 1 1 1 1 1 1 1 1 1 1 1 1 1 1 1 1 1 1 1 1 1 1 1 1 1 1 1 1 1 1 
1.01746 1.01746 1.01747 1.01747 1.01747 1.01747 1.01746 1.01747 1.01746 1.01747 1.01746 1.01747 1.01747 1.01738 1.01683 1.01531 1.01257 1.00904 1.0056 1.00297 1.00134 1.00051 1.00017 1.00005 1.00001 1 1 1 1 1 1 1 1 1 1 1 1 1 1 1 1 1 1 1 1 1 1 1 1 1 1 1 1 1 1 1 1 1 1 1 1 1 1 1 1 1 1 1 1 1 1 1 1 1 1 1 1 1 1 1 1 1 1 1 1 1 1 1 1 1 1 1 1 1 1 1 1 1 1 1 1 1 1 1 1 1 1 1 1 1 1 1 1 1 1 1 1 1 1 1 1 1 1 1 1 1 1 1 
1.01746 1.01746 1.01747 1.01747 1.01747 1.01747 1.01746 1.01747 1.01746 1.01747 1.01746 1.01747 1.01747 1.01738 1.01683 1.01531 1.01257 1.00904 1.0056 1.00297 1.00134 1.00051 1.00017 1.00005 1.00001 1 1 1 1 1 1 1 1 1 1 1 1 1 1 1 1 1 1 1 1 1 1 1 1 1 1 1 1 1 1 1 1 1 1 1 1 1 1 1 1 1 1 1 1 1 1 1 1 1 1 1 1 1 1 1 1 1 1 1 1 1 1 1 1 1 1 1 1 1 1 1 1 1 1 1 1 1 1 1 1 1 1 1 1 1 1 1 1 1 1 1 1 1 1 1 1 1 1 1 1 1 1 1 
1.01746 1.01746 1.01747 1.01747 1.01747 1.01747 1.01746 1.01747 1.01746 1.01747 1.01746 1.01747 1.01747 1.01738 1.01683 1.01531 1.01257 1.00904 1.0056 1.00297 1.00134 1.00051 1.00017 1.00005 1.00001 1 1 1 1 1 1 1 1 1 1 1 1 1 1 1 1 1 1 1 1 1 1 1 1 1 1 1 1 1 1 1 1 1 1 1 1 1 1 1 1 1 1 1 1 1 1 1 1 1 1 1 1 1 1 1 1 1 1 1 1 1 1 1 1 1 1 1 1 1 1 1 1 1 1 1 1 1 1 1 1 1 1 1 1 1 1 1 1 1 1 1 1 1 1 1 1 1 1 1 1 1 1 1 
1.01746 1.01746 1.01747 1.01747 1.01747 1.01747 1.01746 1.01747 1.01746 1.01747 1.01746 1.01747 1.01747 1.01738 1.01683 1.01531 1.01257 1.00904 1.0056 1.00297 1.00134 1.00051 1.00017 1.00005 1.00001 1 1 1 1 1 1 1 1 1 1 1 1 1 1 1 1 1 1 1 1 1 1 1 1 1 1 1 1 1 1 1 1 1 1 1 1 1 1 1 1 1 1 1 1 1 1 1 1 1 1 1 1 1 1 1 1 1 1 1 1 1 1 1 1 1 1 1 1 1 1 1 1 1 1 1 1 1 1 1 1 1 1 1 1 1 1 1 1 1 1 1 1 1 1 1 1 1 1 1 1 1 1 1 
1.01746 1.01746 1.01747 1.01747 1.01747 1.01747 1.01746 1.01747 1.01746 1.01747 1.01746 1.01747 1.01747 1.01738 1.01683 1.01531 1.01257 1.00904 1.0056 1.00297 1.00134 1.00051 1.00017 1.00005 1.00001 1 1 1 1 1 1 1 1 1 1 1 1 1 1 1 1 1 1 1 1 1 1 1 1 1 1 1 1 1 1 1 1 1 1 1 1 1 1 1 1 1 1 1 1 1 1 1 1 1 1 1 1 1 1 1 1 1 1 1 1 1 1 1 1 1 1 1 1 1 1 1 1 1 1 1 1 1 1 1 1 1 1 1 1 1 1 1 1 1 1 1 1 1 1 1 1 1 1 1 1 1 1 1 
1.01746 1.01746 1.01747 1.01747 1.01747 1.01747 1.01746 1.01747 1.01746 1.01747 1.01746 1.01747 1.01747 1.01738 1.01683 1.01531 1.01257 1.00904 1.0056 1.00297 1.00134 1.00051 1.00017 1.00005 1.00001 1 1 1 1 1 1 1 1 1 1 1 1 1 1 1 1 1 1 1 1 1 1 1 1 1 1 1 1 1 1 1 1 1 1 1 1 1 1 1 1 1 1 1 1 1 1 1 1 1 1 1 1 1 1 1 1 1 1 1 1 1 1 1 1 1 1 1 1 1 1 1 1 1 1 1 1 1 1 1 1 1 1 1 1 1 1 1 1 1 1 1 1 1 1 1 1 1 1 1 1 1 1 1 
1.01746 1.01746 1.01747 1.01747 1.01747 1.01747 1.01746 1.01747 1.01746 1.01747 1.01746 1.01747 1.01747 1.01738 1.01683 1.01531 1.01257 1.00904 1.0056 1.00297 1.00134 1.00051 1.00017 1.00005 1.00001 1 1 1 1 1 1 1 1 1 1 1 1 1 1 1 1 1 1 1 1 1 1 1 1 1 1 1 1 1 1 1 1 1 1 1 1 1 1 1 1 1 1 1 1 1 1 1 1 1 1 1 1 1 1 1 1 1 1 1 1 1 1 1 1 1 1 1 1 1 1 1 1 1 1 1 1 1 1 1 1 1 1 1 1 1 1 1 1 1 1 1 1 1 1 1 1 1 1 1 1 1 1 1 
1.01746 1.01746 1.01747 1.01747 1.01747 1.01747 1.01746 1.01747 1.01746 1.01747 1.01746 1.01747 1.01747 1.01738 1.01683 1.01531 1.01257 1.00904 1.0056 1.00297 1.00134 1.00051 1.00017 1.00005 1.00001 1 1 1 1 1 1 1 1 1 1 1 1 1 1 1 1 1 1 1 1 1 1 1 1 1 1 1 1 1 1 1 1 1 1 1 1 1 1 1 1 1 1 1 1 1 1 1 1 1 1 1 1 1 1 1 1 1 1 1 1 1 1 1 1 1 1 1 1 1 1 1 1 1 1 1 1 1 1 1 1 1 1 1 1 1 1 1 1 1 1 1 1 1 1 1 1 1 1 1 1 1 1 1 
1.01746 1.01746 1.01747 1.01747 1.01747 1.01747 1.01746 1.01747 1.01746 1.01747 1.01746 1.01747 1.01747 1.01738 1.01683 1.01531 1.01257 1.00904 1.0056 1.00297 1.00134 1.00051 1.00017 1.00005 1.00001 1 1 1 1 1 1 1 1 1 1 1 1 1 1 1 1 1 1 1 1 1 1 1 1 1 1 1 1 1 1 1 1 1 1 1 1 1 1 1 1 1 1 1 1 1 1 1 1 1 1 1 1 1 1 1 1 1 1 1 1 1 1 1 1 1 1 1 1 1 1 1 1 1 1 1 1 1 1 1 1 1 1 1 1 1 1 1 1 1 1 1 1 1 1 1 1 1 1 1 1 1 1 1 
1.01746 1.01746 1.01747 1.01747 1.01747 1.01747 1.01746 1.01747 1.01746 1.01747 1.01746 1.01747 1.01747 1.01738 1.01683 1.01531 1.01257 1.00904 1.0056 1.00297 1.00134 1.00051 1.00017 1.00005 1.00001 1 1 1 1 1 1 1 1 1 1 1 1 1 1 1 1 1 1 1 1 1 1 1 1 1 1 1 1 1 1 1 1 1 1 1 1 1 1 1 1 1 1 1 1 1 1 1 1 1 1 1 1 1 1 1 1 1 1 1 1 1 1 1 1 1 1 1 1 1 1 1 1 1 1 1 1 1 1 1 1 1 1 1 1 1 1 1 1 1 1 1 1 1 1 1 1 1 1 1 1 1 1 1 
1.01746 1.01746 1.01747 1.01747 1.01747 1.01747 1.01746 1.01747 1.01746 1.01747 1.01746 1.01747 1.01747 1.01738 1.01683 1.01531 1.01257 1.00904 1.0056 1.00297 1.00134 1.00051 1.00017 1.00005 1.00001 1 1 1 1 1 1 1 1 1 1 1 1 1 1 1 1 1 1 1 1 1 1 1 1 1 1 1 1 1 1 1 1 1 1 1 1 1 1 1 1 1 1 1 1 1 1 1 1 1 1 1 1 1 1 1 1 1 1 1 1 1 1 1 1 1 1 1 1 1 1 1 1 1 1 1 1 1 1 1 1 1 1 1 1 1 1 1 1 1 1 1 1 1 1 1 1 1 1 1 1 1 1 1 
1.01746 1.01746 1.01747 1.01747 1.01747 1.01747 1.01746 1.01747 1.01746 1.01747 1.01746 1.01747 1.01747 1.01738 1.01683 1.01531 1.01257 1.00904 1.0056 1.00297 1.00134 1.00051 1.00017 1.00005 1.00001 1 1 1 1 1 1 1 1 1 1 1 1 1 1 1 1 1 1 1 1 1 1 1 1 1 1 1 1 1 1 1 1 1 1 1 1 1 1 1 1 1 1 1 1 1 1 1 1 1 1 1 1 1 1 1 1 1 1 1 1 1 1 1 1 1 1 1 1 1 1 1 1 1 1 1 1 1 1 1 1 1 1 1 1 1 1 1 1 1 1 1 1 1 1 1 1 1 1 1 1 1 1 1 
1.01746 1.01746 1.01747 1.01747 1.01747 1.01747 1.01746 1.01747 1.01746 1.01747 1.01746 1.01747 1.01747 1.01738 1.01683 1.01531 1.01257 1.00904 1.0056 1.00297 1.00134 1.00051 1.00017 1.00005 1.00001 1 1 1 1 1 1 1 1 1 1 1 1 1 1 1 1 1 1 1 1 1 1 1 1 1 1 1 1 1 1 1 1 1 1 1 1 1 1 1 1 1 1 1 1 1 1 1 1 1 1 1 1 1 1 1 1 1 1 1 1 1 1 1 1 1 1 1 1 1 1 1 1 1 1 1 1 1 1 1 1 1 1 1 1 1 1 1 1 1 1 1 1 1 1 1 1 1 1 1 1 1 1 1 
1.01746 1.01746 1.01747 1.01747 1.01747 1.01747 1.01746 1.01747 1.01746 1.01747 1.01746 1.01747 1.01747 1.01738 1.01683 1.01531 1.01257 1.00904 1.0056 1.00297 1.00134 1.00051 1.00017 1.00005 1.00001 1 1 1 1 1 1 1 1 1 1 1 1 1 1 1 1 1 1 1 1 1 1 1 1 1 1 1 1 1 1 1 1 1 1 1 1 1 1 1 1 1 1 1 1 1 1 1 1 1 1 1 1 1 1 1 1 1 1 1 1 1 1 1 1 1 1 1 1 1 1 1 1 1 1 1 1 1 1 1 1 1 1 1 1 1 1 1 1 1 1 1 1 1 1 1 1 1 1 1 1 1 1 1 
1.01746 1.01746 1.01747 1.01747 1.01747 1.01747 1.01746 1.01747 1.01746 1.01747 1.01746 1.01747 1.01747 1.01738 1.01683 1.01531 1.01257 1.00904 1.0056 1.00297 1.00134 1.00051 1.00017 1.00005 1.00001 1 1 1 1 1 1 1 1 1 1 1 1 1 1 1 1 1 1 1 1 1 1 1 1 1 1 1 1 1 1 1 1 1 1 1 1 1 1 1 1 1 1 1 1 1 1 1 1 1 1 1 1 1 1 1 1 1 1 1 1 1 1 1 1 1 1 1 1 1 1 1 1 1 1 1 1 1 1 1 1 1 1 1 1 1 1 1 1 1 1 1 1 1 1 1 1 1 1 1 1 1 1 1 
1.01746 1.01746 1.01747 1.01747 1.01747 1.01747 1.01746 1.01747 1.01746 1.01747 1.01746 1.01747 1.01747 1.01738 1.01683 1.01531 1.01257 1.00904 1.0056 1.00297 1.00134 1.00051 1.00017 1.00005 1.00001 1 1 1 1 1 1 1 1 1 1 1 1 1 1 1 1 1 1 1 1 1 1 1 1 1 1 1 1 1 1 1 1 1 1 1 1 1 1 1 1 1 1 1 1 1 1 1 1 1 1 1 1 1 1 1 1 1 1 1 1 1 1 1 1 1 1 1 1 1 1 1 1 1 1 1 1 1 1 1 1 1 1 1 1 1 1 1 1 1 1 1 1 1 1 1 1 1 1 1 1 1 1 1 
1.01746 1.01746 1.01747 1.01747 1.01747 1.01747 1.01746 1.01747 1.01746 1.01747 1.01746 1.01747 1.01747 1.01738 1.01683 1.01531 1.01257 1.00904 1.0056 1.00297 1.00134 1.00051 1.00017 1.00005 1.00001 1 1 1 1 1 1 1 1 1 1 1 1 1 1 1 1 1 1 1 1 1 1 1 1 1 1 1 1 1 1 1 1 1 1 1 1 1 1 1 1 1 1 1 1 1 1 1 1 1 1 1 1 1 1 1 1 1 1 1 1 1 1 1 1 1 1 1 1 1 1 1 1 1 1 1 1 1 1 1 1 1 1 1 1 1 1 1 1 1 1 1 1 1 1 1 1 1 1 1 1 1 1 1 
1.01746 1.01746 1.01747 1.01747 1.01747 1.01747 1.01746 1.01747 1.01746 1.01747 1.01746 1.01747 1.01747 1.01738 1.01683 1.01531 1.01257 1.00904 1.0056 1.00297 1.00134 1.00051 1.00017 1.00005 1.00001 1 1 1 1 1 1 1 1 1 1 1 1 1 1 1 1 1 1 1 1 1 1 1 1 1 1 1 1 1 1 1 1 1 1 1 1 1 1 1 1 1 1 1 1 1 1 1 1 1 1 1 1 1 1 1 1 1 1 1 1 1 1 1 1 1 1 1 1 1 1 1 1 1 1 1 1 1 1 1 1 1 1 1 1 1 1 1 1 1 1 1 1 1 1 1 1 1 1 1 1 1 1 1 