# vtk DataFile Version 3.0
LBM simulation at step 150
ASCII
DATASET STRUCTURED_POINTS
DIMENSIONS 256 256 1
ORIGIN 0 0 0
SPACING 1 1 1
POINT_DATA 65536
SCALARS density float
LOOKUP_TABLE default
0.741029 1.08735 1.13403 1.09181 1.0836 1.09242 1.0942 1.09238 1.09179 1.09194 1.09189 1.0917 1.09156 1.09146 1.09135 1.09125 1.09115 1.09106 1.09098 1.0909 1.09082 1.09074 1.09067 1.09061 1.09054 1.09048 1.09042 1.09036 1.0903 1.09025 1.0902 1.09015 1.09009 1.09005 1.09 1.08995 1.0899 1.08985 1.0898 1.08976 1.08971 1.08966 1.08962 1.08957 1.08952 1.08947 1.08942 1.08938 1.08933 1.08928 1.08922 1.08917 1.08912 1.08906 1.08901 1.08895 1.08889 1.08883 1.08877 1.0887 1.08864 1.08857 1.08849 1.08842 1.08834 1.08825 1.08816 1.08807 1.08796 1.08785 1.08774 1.08762 1.0875 1.08739 1.08727 1.08716 1.08701 1.08679 1.08639 1.08564 1.08432 1.08214 1.07877 1.07395 1.06755 1.05967 1.0507 1.04126 1.03209 1.02383 1.01692 1.01151 1.00751 1.00472 1.00286 1.00168 1.00095 1.00052 1.00028 1.00014 1.00007 1.00003 1.00002 1.00001 1 1 1 1 1 1 1 1 1 1 1 1 1 1 1 1 1 1 1 1 1 1 1 1 1 1 1 1 1 1 1 1 1 1 1 1 1 1 1 1 1 1 1 1 1 1 1 1 1 0.999999 0.999998 0.999997 0.999993 0.999987 0.999976 0.999956 0.999922 0.999867 0.999782 0.999652 0.999462 0.999195 0.99883 0.998348 0.997734 0.996976 0.996066 0.995008 0.993811 0.992493 0.991077 0.989591 0.988065 0.986526 0.985002 0.983513 0.982077 0.980702 0.979394 0.978153 0.976975 0.975852 0.974778 0.973744 0.972743 0.971768 0.970815 0.969879 0.968957 0.968048 0.967149 0.966259 0.965378 0.964504 0.963637 0.962775 0.961918 0.961065 0.960215 0.959368 0.958522 0.957678 0.956835 0.955991 0.955147 0.954302 0.953455 0.952605 0.951752 0.950896 0.950035 0.94917 0.948298 0.947421 0.946535 0.945642 0.94474 0.943828 0.942905 0.94197 0.941022 0.94006 0.939081 0.938084 0.937068 0.936031 0.93497 0.933882 0.932766 0.931616 0.93043 0.929203 0.927929 0.926603 0.925216 0.92376 0.922224 0.920593 0.918851 0.916976 0.914937 0.912704 0.910226 0.907386 0.904091 0.900435 0.896003 0.88874 0.879405 0.874798 0.852661 0.695744 
1.13041 1.06378 1.05883 1.09395 1.09739 1.0919 1.09102 1.09215 1.09226 1.0919 1.09171 1.09163 1.09153 1.09142 1.09131 1.09122 1.09112 1.09104 1.09095 1.09088 1.09079 1.09073 1.09065 1.09059 1.09052 1.09046 1.0904 1.09034 1.09028 1.09023 1.09017 1.09013 1.09007 1.09002 1.08997 1.08992 1.08987 1.08983 1.08978 1.08973 1.08968 1.08963 1.08959 1.08954 1.08949 1.08944 1.08939 1.08934 1.08929 1.08924 1.08918 1.08913 1.08908 1.08902 1.08896 1.0889 1.08884 1.08878 1.08871 1.08864 1.08857 1.0885 1.08842 1.08834 1.08826 1.08817 1.08807 1.08797 1.08786 1.08774 1.08762 1.08749 1.08735 1.08722 1.08707 1.08691 1.0867 1.08637 1.08584 1.08494 1.08349 1.08123 1.07791 1.07331 1.06731 1.05997 1.05154 1.04254 1.03359 1.02535 1.01828 1.01262 1.00835 1.00532 1.00327 1.00194 1.00111 1.00061 1.00033 1.00017 1.00009 1.00004 1.00002 1.00001 1 1 1 1 1 1 1 1 1 1 1 1 1 1 1 1 1 1 1 1 1 1 1 1 1 1 1 1 1 1 1 1 1 1 1 1 1 1 1 1 1 1 1 1 1 1 1 1 1 0.999999 0.999998 0.999996 0.999992 0.999985 0.999971 0.999949 0.999911 0.99985 0.999756 0.999615 0.999411 0.999127 0.998744 0.998244 0.997611 0.996837 0.995915 0.994851 0.993653 0.992341 0.990936 0.989466 0.987958 0.986439 0.984935 0.983465 0.982044 0.980682 0.979384 0.978149 0.976973 0.975852 0.974777 0.973741 0.972738 0.971761 0.970806 0.969868 0.968945 0.968035 0.967135 0.966245 0.965363 0.964488 0.96362 0.962757 0.961899 0.961045 0.960195 0.959346 0.9585 0.957655 0.95681 0.955966 0.955121 0.954274 0.953426 0.952575 0.951721 0.950863 0.950001 0.949133 0.94826 0.947381 0.946494 0.945598 0.944694 0.943779 0.942854 0.941916 0.940965 0.939999 0.939016 0.938016 0.936995 0.935953 0.934886 0.933792 0.932669 0.931512 0.930317 0.92908 0.927795 0.926456 0.925054 0.923581 0.922024 0.920368 0.918597 0.916687 0.914607 0.912309 0.909746 0.906884 0.90355 0.899304 0.894286 0.889486 0.881417 0.858286 0.835283 0.835283 
1.13965 1.0679 1.07672 1.09628 1.09322 1.09067 1.09171 1.0923 1.09197 1.09173 1.09166 1.09159 1.09147 1.09137 1.09127 1.09119 1.09109 1.09101 1.09092 1.09085 1.09077 1.09071 1.09062 1.09057 1.09049 1.09044 1.09037 1.09032 1.09026 1.09021 1.09015 1.0901 1.09004 1.09 1.08994 1.0899 1.08985 1.0898 1.08975 1.0897 1.08965 1.0896 1.08955 1.0895 1.08945 1.0894 1.08935 1.0893 1.08925 1.0892 1.08914 1.08909 1.08903 1.08897 1.08891 1.08885 1.08879 1.08872 1.08865 1.08858 1.08851 1.08843 1.08835 1.08826 1.08817 1.08807 1.08797 1.08786 1.08774 1.08761 1.08747 1.08733 1.08717 1.08701 1.08683 1.08661 1.08632 1.08591 1.08529 1.0843 1.08279 1.08054 1.07734 1.073 1.06738 1.06047 1.05247 1.04378 1.03497 1.02669 1.01946 1.01357 1.00907 1.00582 1.0036 1.00215 1.00124 1.00069 1.00037 1.00019 1.0001 1.00005 1.00002 1.00001 1 1 1 1 1 1 1 1 1 1 1 1 1 1 1 1 1 1 1 1 1 1 1 1 1 1 1 1 1 1 1 1 1 1 1 1 1 1 1 1 1 1 1 1 1 1 1 1 1 0.999999 0.999998 0.999995 0.999991 0.999983 0.999968 0.999944 0.999903 0.999837 0.999737 0.999587 0.999373 0.999076 0.998678 0.998163 0.997515 0.996726 0.995794 0.994722 0.993522 0.992211 0.990814 0.989355 0.987861 0.986359 0.984872 0.983418 0.982013 0.980663 0.979375 0.978147 0.976976 0.975857 0.974783 0.973747 0.972743 0.971765 0.970809 0.96987 0.968945 0.968034 0.967133 0.966242 0.965359 0.964484 0.963615 0.962751 0.961892 0.961038 0.960186 0.959337 0.95849 0.957644 0.956799 0.955953 0.955107 0.954259 0.95341 0.952558 0.951703 0.950844 0.949981 0.949112 0.948238 0.947357 0.946468 0.945572 0.944666 0.94375 0.942822 0.941883 0.940929 0.939961 0.938976 0.937974 0.936951 0.935905 0.934836 0.933739 0.932612 0.931451 0.930252 0.929011 0.927721 0.926377 0.92497 0.923491 0.921928 0.920267 0.91849 0.916574 0.914494 0.91221 0.909645 0.906755 0.903569 0.899779 0.894615 0.888994 0.885134 0.875648 0.859405 0.859405 
1.05641 1.09227 1.10511 1.08749 1.08735 1.09268 1.09281 1.09162 1.09154 1.09173 1.09164 1.09149 1.09139 1.09132 1.09122 1.09114 1.09105 1.09098 1.09089 1.09082 1.09074 1.09068 1.09059 1.09054 1.09046 1.09042 1.09034 1.0903 1.09023 1.09019 1.09012 1.09008 1.09002 1.08997 1.08991 1.08987 1.08981 1.08977 1.08972 1.08967 1.08962 1.08957 1.08952 1.08947 1.08942 1.08937 1.08931 1.08926 1.08921 1.08915 1.0891 1.08904 1.08898 1.08892 1.08886 1.08879 1.08873 1.08866 1.08859 1.08851 1.08843 1.08835 1.08826 1.08817 1.08808 1.08797 1.08786 1.08774 1.08761 1.08747 1.08733 1.08716 1.08699 1.0868 1.08658 1.08633 1.08599 1.08552 1.08482 1.08378 1.08224 1.08002 1.07693 1.07278 1.06746 1.06092 1.05329 1.04488 1.03623 1.02794 1.02057 1.01448 1.00975 1.00631 1.00393 1.00236 1.00137 1.00077 1.00042 1.00022 1.00011 1.00005 1.00003 1.00001 1.00001 1 1 1 1 1 1 1 1 1 1 1 1 1 1 1 1 1 1 1 1 1 1 1 1 1 1 1 1 1 1 1 1 1 1 1 1 1 1 1 1 1 1 1 1 1 1 1 0.999999 0.999999 0.999998 0.999995 0.99999 0.999981 0.999966 0.999939 0.999896 0.999826 0.999721 0.999564 0.999341 0.999034 0.998624 0.998096 0.997436 0.996636 0.995695 0.994618 0.993417 0.99211 0.990719 0.989269 0.987788 0.9863 0.984827 0.983386 0.981993 0.980654 0.979374 0.978152 0.976986 0.975869 0.974796 0.973761 0.972756 0.971778 0.97082 0.96988 0.968955 0.968043 0.967141 0.966249 0.965366 0.96449 0.96362 0.962756 0.961896 0.961041 0.960189 0.959339 0.958491 0.957645 0.956799 0.955953 0.955106 0.954257 0.953407 0.952555 0.951699 0.950839 0.949975 0.949106 0.948231 0.947349 0.94646 0.945562 0.944656 0.943739 0.942811 0.94187 0.940916 0.939947 0.938961 0.937958 0.936934 0.935889 0.934818 0.933721 0.932594 0.931433 0.930235 0.928995 0.927707 0.926365 0.924962 0.923488 0.921933 0.920283 0.918523 0.916629 0.914575 0.91234 0.909891 0.907099 0.903881 0.90052 0.896813 0.890886 0.883885 0.881048 0.877615 0.877615 
1.09593 1.09572 1.08816 1.08823 1.09325 1.09228 1.09108 1.09148 1.09179 1.09162 1.09145 1.0914 1.09133 1.09126 1.09116 1.09109 1.091 1.09094 1.09085 1.09079 1.0907 1.09065 1.09056 1.09052 1.09043 1.09039 1.09031 1.09027 1.0902 1.09016 1.09009 1.09005 1.08998 1.08995 1.08988 1.08984 1.08978 1.08974 1.08968 1.08964 1.08958 1.08954 1.08948 1.08943 1.08938 1.08933 1.08927 1.08922 1.08916 1.08911 1.08905 1.08899 1.08893 1.08887 1.0888 1.08874 1.08867 1.0886 1.08852 1.08844 1.08836 1.08827 1.08818 1.08809 1.08798 1.08787 1.08776 1.08763 1.08749 1.08734 1.08718 1.08701 1.08682 1.08661 1.08636 1.08607 1.08568 1.08515 1.0844 1.0833 1.08173 1.07952 1.07653 1.07258 1.06755 1.06136 1.05407 1.04595 1.03744 1.02915 1.02166 1.01536 1.01043 1.00679 1.00425 1.00257 1.0015 1.00084 1.00046 1.00024 1.00012 1.00006 1.00003 1.00001 1.00001 1 1 1 1 1 1 1 1 1 1 1 1 1 1 1 1 1 1 1 1 1 1 1 1 1 1 1 1 1 1 1 1 1 1 1 1 1 1 1 1 1 1 1 1 1 1 1 0.999999 0.999999 0.999997 0.999995 0.99999 0.99998 0.999964 0.999936 0.99989 0.999818 0.999707 0.999545 0.999315 0.998999 0.998579 0.998041 0.997371 0.996563 0.995616 0.994535 0.993334 0.99203 0.990646 0.989206 0.987737 0.986261 0.9848 0.983372 0.981989 0.980659 0.979386 0.978169 0.977006 0.975891 0.974819 0.973783 0.972778 0.971799 0.97084 0.9699 0.968974 0.968061 0.967159 0.966266 0.965382 0.964506 0.963635 0.962771 0.961911 0.961055 0.960202 0.959352 0.958504 0.957657 0.95681 0.955963 0.955116 0.954268 0.953417 0.952564 0.951708 0.950848 0.949983 0.949114 0.948238 0.947356 0.946467 0.945569 0.944662 0.943745 0.942817 0.941877 0.940923 0.939954 0.93897 0.937967 0.936944 0.9359 0.934832 0.933737 0.932612 0.931455 0.930261 0.929027 0.927746 0.926413 0.925021 0.923562 0.922026 0.920401 0.918673 0.916827 0.914837 0.912669 0.910321 0.907783 0.904869 0.901488 0.898277 0.89498 0.889803 0.885483 0.883269 0.883269 
1.09784 1.091 1.08903 1.09364 1.09215 1.09044 1.09142 1.09185 1.09152 1.09136 1.09137 1.09134 1.09124 1.09117 1.09109 1.09104 1.09095 1.09089 1.0908 1.09075 1.09066 1.09061 1.09052 1.09048 1.0904 1.09036 1.09028 1.09024 1.09016 1.09013 1.09006 1.09002 1.08995 1.08992 1.08985 1.08981 1.08975 1.08971 1.08965 1.0896 1.08955 1.0895 1.08944 1.0894 1.08934 1.08929 1.08923 1.08918 1.08912 1.08906 1.089 1.08894 1.08888 1.08882 1.08875 1.08868 1.08861 1.08853 1.08846 1.08837 1.08829 1.0882 1.0881 1.088 1.08789 1.08778 1.08765 1.08752 1.08738 1.08722 1.08705 1.08686 1.08665 1.08642 1.08615 1.08581 1.08538 1.08479 1.08398 1.08283 1.08124 1.07907 1.07617 1.07241 1.06765 1.06179 1.05483 1.04697 1.03861 1.03033 1.02271 1.01623 1.01109 1.00726 1.00457 1.00277 1.00162 1.00091 1.0005 1.00026 1.00013 1.00007 1.00003 1.00001 1.00001 1 1 1 1 1 1 1 1 1 1 1 1 1 1 1 1 1 1 1 1 1 1 1 1 1 1 1 1 1 1 1 1 1 1 1 1 1 1 1 1 1 1 1 1 1 1 1 0.999999 0.999999 0.999997 0.999994 0.999989 0.999979 0.999962 0.999933 0.999885 0.999811 0.999697 0.99953 0.999294 0.998971 0.998544 0.997997 0.99732 0.996506 0.995554 0.994471 0.993271 0.991971 0.990594 0.989164 0.987705 0.986241 0.984792 0.983375 0.982001 0.980679 0.979412 0.978199 0.977038 0.975925 0.974853 0.973817 0.972811 0.971831 0.970871 0.96993 0.969003 0.968089 0.967186 0.966293 0.965409 0.964531 0.963661 0.962796 0.961935 0.961079 0.960226 0.959375 0.958527 0.957679 0.956832 0.955985 0.955138 0.954289 0.953438 0.952585 0.951728 0.950868 0.950004 0.949134 0.948259 0.947377 0.946488 0.94559 0.944684 0.943768 0.94284 0.941901 0.940948 0.939981 0.938998 0.937997 0.936977 0.935936 0.934871 0.933781 0.932662 0.931511 0.930325 0.929099 0.92783 0.926511 0.925137 0.9237 0.922191 0.920601 0.918916 0.917124 0.915215 0.913161 0.910916 0.908509 0.905996 0.903103 0.899711 0.896716 0.893818 0.890486 0.887981 0.887981 
1.08906 1.09151 1.09297 1.0918 1.09049 1.09157 1.0918 1.09131 1.09125 1.09136 1.09131 1.09121 1.09114 1.0911 1.09103 1.09097 1.09089 1.09084 1.09075 1.0907 1.09061 1.09057 1.09048 1.09045 1.09036 1.09033 1.09024 1.09021 1.09013 1.0901 1.09002 1.08999 1.08992 1.08988 1.08981 1.08978 1.08971 1.08967 1.08961 1.08957 1.08951 1.08946 1.08941 1.08936 1.0893 1.08925 1.08919 1.08914 1.08908 1.08902 1.08896 1.08889 1.08883 1.08876 1.08869 1.08862 1.08855 1.08847 1.08839 1.08831 1.08822 1.08812 1.08802 1.08792 1.08781 1.08768 1.08755 1.08741 1.08726 1.08709 1.08691 1.08671 1.08649 1.08623 1.08593 1.08555 1.08507 1.08444 1.08357 1.08239 1.08079 1.07865 1.07586 1.07228 1.06778 1.06222 1.05558 1.04797 1.03975 1.03147 1.02375 1.01708 1.01173 1.00772 1.00487 1.00296 1.00174 1.00098 1.00054 1.00028 1.00015 1.00007 1.00003 1.00002 1.00001 1 1 1 1 1 1 1 1 1 1 1 1 1 1 1 1 1 1 1 1 1 1 1 1 1 1 1 1 1 1 1 1 1 1 1 1 1 1 1 1 1 1 1 1 1 1 1 0.999999 0.999999 0.999997 0.999994 0.999989 0.999979 0.999961 0.999931 0.999882 0.999806 0.999689 0.999519 0.999279 0.99895 0.998518 0.997966 0.997283 0.996464 0.99551 0.994426 0.993228 0.991932 0.990562 0.98914 0.987692 0.986238 0.9848 0.983393 0.982028 0.980712 0.97945 0.978241 0.977083 0.97597 0.974898 0.973862 0.972855 0.971873 0.970913 0.96997 0.969042 0.968128 0.967224 0.96633 0.965445 0.964567 0.963696 0.96283 0.96197 0.961113 0.960259 0.959409 0.958559 0.957712 0.956865 0.956017 0.95517 0.954321 0.95347 0.952617 0.95176 0.9509 0.950036 0.949167 0.948292 0.94741 0.946522 0.945625 0.94472 0.943805 0.942879 0.941941 0.94099 0.940025 0.939045 0.938047 0.937031 0.935993 0.934934 0.933849 0.932737 0.931595 0.930419 0.929205 0.92795 0.926649 0.925296 0.923885 0.922408 0.920859 0.919226 0.917498 0.915662 0.91372 0.911645 0.90938 0.906997 0.904596 0.901885 0.898969 0.896361 0.893754 0.891443 0.891443 
1.09143 1.0917 1.09162 1.09094 1.09152 1.09169 1.09117 1.09119 1.09133 1.09125 1.09114 1.09111 1.09107 1.09102 1.09095 1.0909 1.09082 1.09078 1.09069 1.09065 1.09056 1.09053 1.09044 1.09041 1.09032 1.09029 1.0902 1.09018 1.09009 1.09006 1.08998 1.08996 1.08988 1.08985 1.08978 1.08974 1.08968 1.08964 1.08957 1.08953 1.08947 1.08943 1.08937 1.08932 1.08926 1.08921 1.08915 1.08909 1.08903 1.08897 1.08891 1.08885 1.08878 1.08871 1.08864 1.08857 1.08849 1.08841 1.08833 1.08824 1.08815 1.08805 1.08794 1.08783 1.08772 1.08759 1.08745 1.0873 1.08714 1.08697 1.08677 1.08656 1.08631 1.08603 1.0857 1.08529 1.08477 1.08409 1.08318 1.08197 1.08036 1.07827 1.07558 1.07218 1.06792 1.06266 1.05631 1.04894 1.04085 1.03258 1.02475 1.01791 1.01236 1.00817 1.00518 1.00316 1.00185 1.00105 1.00058 1.00031 1.00016 1.00008 1.00004 1.00002 1.00001 1 1 1 1 1 1 1 1 1 1 1 1 1 1 1 1 1 1 1 1 1 1 1 1 1 1 1 1 1 1 1 1 1 1 1 1 1 1 1 1 1 1 1 1 1 1 1 0.999999 0.999999 0.999997 0.999994 0.999988 0.999978 0.99996 0.99993 0.99988 0.999802 0.999684 0.999512 0.999269 0.998937 0.998501 0.997945 0.997259 0.996438 0.995482 0.9944 0.993204 0.991913 0.990549 0.989136 0.987697 0.986253 0.984824 0.983426 0.982068 0.980759 0.979502 0.978296 0.977139 0.976027 0.974955 0.973918 0.97291 0.971927 0.970965 0.970021 0.969092 0.968177 0.967272 0.966378 0.965492 0.964613 0.963741 0.962875 0.962014 0.961157 0.960303 0.959452 0.958602 0.957754 0.956907 0.95606 0.955212 0.954363 0.953512 0.952659 0.951803 0.950943 0.950079 0.94921 0.948336 0.947455 0.946568 0.945672 0.944768 0.943854 0.94293 0.941995 0.941046 0.940084 0.939107 0.938113 0.937101 0.936069 0.935016 0.933938 0.932834 0.931702 0.930537 0.929338 0.928099 0.926818 0.925489 0.924106 0.922665 0.921157 0.919577 0.917918 0.916164 0.914309 0.912368 0.910317 0.908093 0.905805 0.903527 0.901098 0.898676 0.896411 0.89434 0.89434 
1.09201 1.0913 1.0911 1.09137 1.09152 1.09114 1.09115 1.09128 1.09117 1.09108 1.09107 1.09104 1.09098 1.09093 1.09087 1.09083 1.09076 1.09071 1.09063 1.0906 1.09051 1.09048 1.09039 1.09036 1.09027 1.09025 1.09016 1.09014 1.09005 1.09003 1.08995 1.08992 1.08984 1.08981 1.08974 1.08971 1.08964 1.0896 1.08954 1.0895 1.08943 1.08939 1.08933 1.08928 1.08922 1.08916 1.0891 1.08905 1.08899 1.08892 1.08886 1.0888 1.08873 1.08866 1.08858 1.08851 1.08843 1.08835 1.08826 1.08817 1.08807 1.08797 1.08786 1.08775 1.08762 1.08749 1.08735 1.08719 1.08702 1.08683 1.08663 1.0864 1.08614 1.08583 1.08547 1.08503 1.08447 1.08375 1.08281 1.08157 1.07997 1.07793 1.07535 1.07212 1.06809 1.0631 1.05703 1.04989 1.04193 1.03367 1.02574 1.01873 1.01298 1.00861 1.00547 1.00334 1.00197 1.00112 1.00061 1.00033 1.00017 1.00008 1.00004 1.00002 1.00001 1 1 1 1 1 1 1 1 1 1 1 1 1 1 1 1 1 1 1 1 1 1 1 1 1 1 1 1 1 1 1 1 1 1 1 1 1 1 1 1 1 1 1 1 1 1 1 0.999999 0.999999 0.999997 0.999994 0.999988 0.999978 0.99996 0.999929 0.99988 0.999801 0.999682 0.999509 0.999264 0.998932 0.998494 0.997936 0.997249 0.996427 0.995472 0.994391 0.993199 0.991913 0.990556 0.989151 0.98772 0.986285 0.984865 0.983474 0.982123 0.980819 0.979565 0.978362 0.977206 0.976095 0.975022 0.973984 0.972975 0.971991 0.971028 0.970083 0.969153 0.968236 0.967331 0.966435 0.965548 0.964669 0.963797 0.96293 0.962068 0.961211 0.960356 0.959505 0.958655 0.957807 0.956959 0.956112 0.955264 0.954415 0.953564 0.952711 0.951856 0.950996 0.950133 0.949265 0.948391 0.947512 0.946625 0.945731 0.944828 0.943916 0.942994 0.942061 0.941116 0.940157 0.939183 0.938194 0.937187 0.936161 0.935114 0.934044 0.93295 0.931828 0.930676 0.929491 0.928271 0.92701 0.925706 0.924353 0.922947 0.921483 0.919955 0.918358 0.916688 0.914932 0.913087 0.91118 0.909189 0.907082 0.904959 0.902834 0.900677 0.898604 0.896711 0.896711 
1.09108 1.09122 1.09128 1.09129 1.09113 1.09111 1.0912 1.0911 1.09102 1.09103 1.09099 1.09094 1.09089 1.09085 1.0908 1.09076 1.09069 1.09065 1.09057 1.09054 1.09046 1.09043 1.09034 1.09032 1.09023 1.09021 1.09012 1.0901 1.09001 1.08999 1.08991 1.08988 1.0898 1.08978 1.0897 1.08967 1.0896 1.08956 1.0895 1.08946 1.08939 1.08935 1.08929 1.08924 1.08917 1.08912 1.08906 1.089 1.08894 1.08888 1.08881 1.08874 1.08867 1.0886 1.08853 1.08845 1.08837 1.08828 1.08819 1.0881 1.088 1.08789 1.08778 1.08766 1.08753 1.08739 1.08724 1.08708 1.0869 1.0867 1.08648 1.08624 1.08596 1.08563 1.08524 1.08477 1.08418 1.08342 1.08245 1.0812 1.07961 1.07762 1.07514 1.07208 1.06827 1.06355 1.05774 1.05082 1.04298 1.03473 1.0267 1.01952 1.01359 1.00903 1.00576 1.00352 1.00208 1.00118 1.00065 1.00034 1.00018 1.00009 1.00004 1.00002 1.00001 1 1 1 1 1 1 1 1 1 1 1 1 1 1 1 1 1 1 1 1 1 1 1 1 1 1 1 1 1 1 1 1 1 1 1 1 1 1 1 1 1 1 1 1 1 1 1 0.999999 0.999999 0.999997 0.999994 0.999988 0.999978 0.99996 0.99993 0.99988 0.999802 0.999683 0.99951 0.999265 0.998933 0.998495 0.997938 0.997252 0.996431 0.995478 0.994401 0.993213 0.991933 0.990582 0.989184 0.987761 0.986334 0.984921 0.983537 0.982192 0.980892 0.979642 0.97844 0.977285 0.976174 0.975101 0.974061 0.973051 0.972066 0.971101 0.970155 0.969224 0.968306 0.967399 0.966503 0.965615 0.964735 0.963862 0.962995 0.962133 0.961274 0.96042 0.959568 0.958718 0.957869 0.957022 0.956174 0.955326 0.954477 0.953627 0.952774 0.951919 0.95106 0.950197 0.94933 0.948457 0.947578 0.946693 0.945801 0.9449 0.94399 0.94307 0.942139 0.941197 0.940242 0.939272 0.938288 0.937286 0.936266 0.935227 0.934166 0.933081 0.93197 0.930832 0.929663 0.92846 0.927221 0.925941 0.924619 0.923248 0.921827 0.92035 0.918811 0.917212 0.91555 0.913813 0.912005 0.910157 0.908249 0.906287 0.904333 0.902392 0.900488 0.898723 0.898723 
1.09109 1.09115 1.09113 1.09108 1.09105 1.0911 1.09104 1.09097 1.09097 1.09094 1.09088 1.09085 1.09081 1.09078 1.09072 1.09068 1.09062 1.09059 1.09051 1.09048 1.0904 1.09038 1.09029 1.09027 1.09018 1.09016 1.09007 1.09006 1.08997 1.08995 1.08986 1.08984 1.08976 1.08974 1.08966 1.08963 1.08956 1.08952 1.08946 1.08942 1.08935 1.08931 1.08924 1.08919 1.08913 1.08908 1.08901 1.08895 1.08889 1.08883 1.08876 1.08869 1.08862 1.08855 1.08847 1.08839 1.0883 1.08822 1.08812 1.08803 1.08792 1.08781 1.0877 1.08757 1.08744 1.08729 1.08713 1.08696 1.08677 1.08657 1.08633 1.08607 1.08578 1.08543 1.08502 1.08452 1.08389 1.0831 1.0821 1.08085 1.07928 1.07734 1.07497 1.07206 1.06847 1.064 1.05844 1.05172 1.04401 1.03577 1.02764 1.0203 1.01418 1.00945 1.00603 1.0037 1.00218 1.00124 1.00068 1.00036 1.00019 1.00009 1.00004 1.00002 1.00001 1 1 1 1 1 1 1 1 1 1 1 1 1 1 1 1 1 1 1 1 1 1 1 1 1 1 1 1 1 1 1 1 1 1 1 1 1 1 1 1 1 1 1 1 1 1 1 0.999999 0.999999 0.999997 0.999994 0.999989 0.999979 0.999961 0.999931 0.999881 0.999804 0.999686 0.999514 0.999271 0.99894 0.998505 0.99795 0.997267 0.99645 0.995501 0.994428 0.993245 0.991971 0.990628 0.989237 0.987821 0.986401 0.984994 0.983616 0.982275 0.980979 0.979731 0.978531 0.977376 0.976264 0.97519 0.97415 0.973138 0.972151 0.971185 0.970237 0.969305 0.968385 0.967478 0.966581 0.965692 0.964811 0.963938 0.96307 0.962207 0.961348 0.960493 0.95964 0.95879 0.957941 0.957093 0.956246 0.955398 0.954549 0.953699 0.952847 0.951992 0.951133 0.950271 0.949405 0.948533 0.947656 0.946772 0.945881 0.944982 0.944074 0.943157 0.942229 0.94129 0.940339 0.939374 0.938394 0.937398 0.936385 0.935353 0.934301 0.933226 0.932127 0.931002 0.929848 0.928664 0.927446 0.926192 0.924898 0.923562 0.922181 0.920752 0.919271 0.917736 0.916148 0.91451 0.912812 0.911067 0.909295 0.907489 0.905671 0.903872 0.902108 0.900449 0.900449 
1.09108 1.09101 1.09099 1.09099 1.09099 1.09097 1.09092 1.09091 1.09088 1.09084 1.0908 1.09078 1.09073 1.0907 1.09064 1.09061 1.09055 1.09052 1.09045 1.09042 1.09034 1.09032 1.09024 1.09022 1.09013 1.09011 1.09003 1.09001 1.08992 1.08991 1.08982 1.0898 1.08972 1.0897 1.08962 1.08959 1.08952 1.08948 1.08942 1.08937 1.08931 1.08926 1.0892 1.08915 1.08909 1.08903 1.08897 1.08891 1.08884 1.08878 1.08871 1.08864 1.08856 1.08849 1.08841 1.08833 1.08824 1.08815 1.08805 1.08795 1.08784 1.08773 1.08761 1.08748 1.08734 1.08719 1.08702 1.08684 1.08665 1.08643 1.08618 1.08591 1.0856 1.08523 1.08479 1.08426 1.08361 1.08279 1.08178 1.08051 1.07897 1.07709 1.07482 1.07208 1.06869 1.06445 1.05913 1.05261 1.04502 1.03678 1.02857 1.02106 1.01476 1.00986 1.0063 1.00387 1.00229 1.0013 1.00072 1.00038 1.0002 1.0001 1.00005 1.00002 1.00001 1 1 1 1 1 1 1 1 1 1 1 1 1 1 1 1 1 1 1 1 1 1 1 1 1 1 1 1 1 1 1 1 1 1 1 1 1 1 1 1 1 1 1 1 1 1 1 0.999999 0.999999 0.999997 0.999994 0.999989 0.999979 0.999962 0.999932 0.999884 0.999808 0.999692 0.999522 0.999282 0.998954 0.998523 0.997973 0.997295 0.996483 0.99554 0.994473 0.993297 0.992029 0.990692 0.989308 0.987899 0.986485 0.985084 0.98371 0.982373 0.98108 0.979833 0.978634 0.977479 0.976366 0.975291 0.974249 0.973236 0.972247 0.971279 0.97033 0.969396 0.968476 0.967567 0.966668 0.965779 0.964897 0.964023 0.963154 0.96229 0.961431 0.960576 0.959723 0.958872 0.958023 0.957175 0.956328 0.95548 0.954631 0.953781 0.952929 0.952075 0.951217 0.950356 0.94949 0.948619 0.947743 0.946861 0.945972 0.945075 0.944169 0.943255 0.94233 0.941395 0.940447 0.939486 0.938512 0.937522 0.936516 0.935492 0.934448 0.933384 0.932296 0.931185 0.930047 0.928881 0.927683 0.926453 0.925188 0.923885 0.922542 0.921157 0.919728 0.918255 0.916734 0.915171 0.913569 0.911925 0.910253 0.908566 0.906869 0.905182 0.903525 0.901953 0.901953 
1.09091 1.0909 1.09091 1.0909 1.09088 1.09086 1.09084 1.09082 1.09078 1.09076 1.09073 1.09069 1.09065 1.09062 1.09057 1.09054 1.09048 1.09045 1.09039 1.09036 1.09029 1.09027 1.09018 1.09017 1.09008 1.09007 1.08998 1.08997 1.08988 1.08986 1.08978 1.08976 1.08968 1.08965 1.08958 1.08955 1.08948 1.08944 1.08937 1.08933 1.08927 1.08922 1.08915 1.0891 1.08904 1.08898 1.08892 1.08886 1.08879 1.08872 1.08865 1.08858 1.08851 1.08843 1.08835 1.08826 1.08817 1.08808 1.08798 1.08788 1.08777 1.08765 1.08752 1.08739 1.08724 1.08708 1.08691 1.08672 1.08652 1.08629 1.08603 1.08574 1.08541 1.08503 1.08457 1.08401 1.08333 1.0825 1.08146 1.0802 1.07868 1.07686 1.07471 1.07211 1.06892 1.06491 1.05982 1.05349 1.04601 1.03778 1.02947 1.0218 1.01532 1.01026 1.00657 1.00403 1.00238 1.00136 1.00075 1.0004 1.0002 1.0001 1.00005 1.00002 1.00001 1 1 1 1 1 1 1 1 1 1 1 1 1 1 1 1 1 1 1 1 1 1 1 1 1 1 1 1 1 1 1 1 1 1 1 1 1 1 1 1 1 1 1 1 1 1 1 0.999999 0.999999 0.999997 0.999995 0.999989 0.99998 0.999963 0.999934 0.999887 0.999813 0.999699 0.999533 0.999297 0.998975 0.998549 0.998005 0.997334 0.996529 0.995594 0.994535 0.993366 0.992106 0.990775 0.989398 0.987995 0.986586 0.98519 0.98382 0.982486 0.981195 0.979949 0.978749 0.977594 0.97648 0.975404 0.97436 0.973344 0.972354 0.971385 0.970433 0.969498 0.968576 0.967666 0.966767 0.965876 0.964994 0.964118 0.963248 0.962384 0.961524 0.960668 0.959815 0.958964 0.958115 0.957267 0.956419 0.955571 0.954723 0.953873 0.953021 0.952167 0.95131 0.95045 0.949585 0.948716 0.947841 0.94696 0.946073 0.945178 0.944275 0.943363 0.942442 0.94151 0.940566 0.939611 0.938641 0.937657 0.936658 0.935642 0.934607 0.933553 0.932478 0.931379 0.930257 0.929108 0.927931 0.926725 0.925486 0.924214 0.922907 0.921563 0.920181 0.918762 0.917304 0.915808 0.91428 0.912724 0.911141 0.909545 0.907945 0.90635 0.904781 0.903279 0.903279 
1.09082 1.09081 1.09081 1.0908 1.09078 1.09077 1.09075 1.09073 1.0907 1.09068 1.09064 1.09061 1.09057 1.09055 1.0905 1.09047 1.09041 1.09039 1.09032 1.0903 1.09023 1.09021 1.09013 1.09011 1.09003 1.09002 1.08993 1.08992 1.08983 1.08982 1.08973 1.08971 1.08963 1.08961 1.08953 1.0895 1.08943 1.0894 1.08933 1.08929 1.08922 1.08917 1.08911 1.08906 1.08899 1.08893 1.08887 1.08881 1.08874 1.08867 1.0886 1.08852 1.08845 1.08837 1.08828 1.0882 1.08811 1.08801 1.08791 1.0878 1.08769 1.08756 1.08743 1.08729 1.08714 1.08698 1.0868 1.0866 1.08639 1.08615 1.08588 1.08558 1.08523 1.08482 1.08434 1.08377 1.08306 1.08221 1.08116 1.07991 1.07842 1.07667 1.07461 1.07217 1.06917 1.06538 1.0605 1.05436 1.04698 1.03875 1.03035 1.02253 1.01587 1.01064 1.00682 1.00419 1.00248 1.00141 1.00078 1.00041 1.00021 1.0001 1.00005 1.00002 1.00001 1 1 1 1 1 1 1 1 1 1 1 1 1 1 1 1 1 1 1 1 1 1 1 1 1 1 1 1 1 1 1 1 1 1 1 1 1 1 1 1 1 1 1 1 1 1 1 0.999999 0.999999 0.999998 0.999995 0.99999 0.999981 0.999965 0.999937 0.999891 0.999819 0.999709 0.999547 0.999316 0.999 0.998582 0.998047 0.997384 0.996589 0.995663 0.994613 0.993453 0.992201 0.990878 0.989507 0.988109 0.986706 0.985313 0.983946 0.982614 0.981324 0.980078 0.978878 0.977722 0.976606 0.975528 0.974482 0.973464 0.972472 0.971501 0.970548 0.96961 0.968687 0.967776 0.966875 0.965983 0.9651 0.964223 0.963353 0.962488 0.961627 0.960771 0.959917 0.959066 0.958216 0.957368 0.95652 0.955673 0.954824 0.953975 0.953124 0.95227 0.951414 0.950554 0.949691 0.948822 0.947949 0.94707 0.946184 0.945292 0.944391 0.943482 0.942564 0.941636 0.940696 0.939745 0.938781 0.937804 0.936811 0.935803 0.934777 0.933733 0.932669 0.931584 0.930477 0.929345 0.928188 0.927004 0.925791 0.924548 0.923274 0.921968 0.920628 0.919256 0.917853 0.916418 0.914955 0.913469 0.911963 0.910444 0.908921 0.907404 0.905905 0.904462 0.904462 
1.09073 1.09071 1.09071 1.0907 1.09069 1.09068 1.09066 1.09064 1.09062 1.09059 1.09056 1.09054 1.0905 1.09047 1.09043 1.0904 1.09035 1.09032 1.09026 1.09024 1.09017 1.09015 1.09007 1.09006 1.08998 1.08997 1.08988 1.08987 1.08978 1.08977 1.08969 1.08967 1.08959 1.08957 1.08949 1.08946 1.08939 1.08935 1.08928 1.08924 1.08917 1.08913 1.08906 1.08901 1.08894 1.08888 1.08882 1.08875 1.08868 1.08862 1.08854 1.08847 1.08839 1.08831 1.08822 1.08813 1.08804 1.08794 1.08783 1.08772 1.0876 1.08748 1.08734 1.0872 1.08704 1.08687 1.08669 1.08648 1.08626 1.08601 1.08573 1.08541 1.08505 1.08462 1.08412 1.08352 1.0828 1.08193 1.08088 1.07963 1.07818 1.07649 1.07454 1.07225 1.06944 1.06585 1.06119 1.05521 1.04793 1.0397 1.03121 1.02324 1.0164 1.01101 1.00706 1.00434 1.00257 1.00146 1.0008 1.00043 1.00022 1.00011 1.00005 1.00002 1.00001 1 1 1 1 1 1 1 1 1 1 1 1 1 1 1 1 1 1 1 1 1 1 1 1 1 1 1 1 1 1 1 1 1 1 1 1 1 1 1 1 1 1 1 1 1 1 1 1 0.999999 0.999998 0.999995 0.999991 0.999982 0.999966 0.99994 0.999896 0.999827 0.99972 0.999563 0.999339 0.999031 0.998622 0.998097 0.997445 0.996662 0.995747 0.994707 0.993557 0.992314 0.990999 0.989634 0.988242 0.986843 0.985454 0.984089 0.982758 0.981467 0.980221 0.97902 0.977862 0.976744 0.975664 0.974615 0.973596 0.972601 0.971628 0.970673 0.969734 0.968809 0.967896 0.966994 0.966101 0.965216 0.964339 0.963468 0.962602 0.961741 0.960883 0.960029 0.959178 0.958328 0.957479 0.956632 0.955784 0.954936 0.954086 0.953236 0.952383 0.951527 0.950668 0.949806 0.948939 0.948067 0.94719 0.946306 0.945416 0.944518 0.943612 0.942697 0.941772 0.940837 0.939891 0.938932 0.937961 0.936975 0.935975 0.934958 0.933924 0.932871 0.931799 0.930706 0.929591 0.928452 0.927289 0.9261 0.924885 0.923641 0.922369 0.921069 0.91974 0.918384 0.917002 0.915596 0.914169 0.912726 0.911273 0.909815 0.908361 0.906922 0.905529 0.905529 
1.09064 1.09062 1.09062 1.09061 1.0906 1.09059 1.09058 1.09056 1.09054 1.09051 1.09048 1.09046 1.09042 1.0904 1.09036 1.09033 1.09028 1.09026 1.0902 1.09018 1.09011 1.09009 1.09002 1.09001 1.08992 1.08991 1.08983 1.08982 1.08973 1.08972 1.08964 1.08962 1.08954 1.08952 1.08944 1.08941 1.08934 1.08931 1.08923 1.08919 1.08913 1.08908 1.08901 1.08896 1.08889 1.08883 1.08876 1.0887 1.08863 1.08856 1.08848 1.08841 1.08833 1.08824 1.08816 1.08806 1.08797 1.08787 1.08776 1.08764 1.08752 1.08739 1.08725 1.0871 1.08694 1.08676 1.08657 1.08636 1.08613 1.08587 1.08558 1.08524 1.08486 1.08442 1.0839 1.08329 1.08254 1.08166 1.08061 1.07937 1.07795 1.07634 1.0745 1.07235 1.06972 1.06633 1.06187 1.05606 1.04887 1.04064 1.03205 1.02393 1.01692 1.01137 1.0073 1.00448 1.00265 1.00151 1.00083 1.00044 1.00023 1.00011 1.00005 1.00002 1.00001 1 1 1 1 1 1 1 1 1 1 1 1 1 1 1 1 1 1 1 1 1 1 1 1 1 1 1 1 1 1 1 1 1 1 1 1 1 1 1 1 1 1 1 1 1 1 1 1 0.999999 0.999998 0.999996 0.999991 0.999983 0.999968 0.999943 0.999902 0.999835 0.999733 0.999582 0.999365 0.999066 0.998668 0.998155 0.997516 0.996746 0.995844 0.994817 0.993678 0.992445 0.991138 0.989781 0.988394 0.986998 0.985612 0.984248 0.982917 0.981626 0.980379 0.979176 0.978015 0.976895 0.975812 0.974761 0.973739 0.972742 0.971766 0.970809 0.969868 0.968941 0.968027 0.967123 0.966229 0.965343 0.964465 0.963592 0.962726 0.961864 0.961006 0.960151 0.959299 0.958449 0.957601 0.956753 0.955905 0.955057 0.954208 0.953358 0.952505 0.951651 0.950793 0.949931 0.949065 0.948195 0.947319 0.946438 0.94555 0.944654 0.943751 0.94284 0.941919 0.940988 0.940046 0.939093 0.938128 0.937149 0.936156 0.935148 0.934124 0.933083 0.932023 0.930944 0.929845 0.928724 0.927581 0.926414 0.925224 0.924008 0.922768 0.921503 0.920213 0.918898 0.917562 0.916205 0.91483 0.913441 0.912043 0.91064 0.909239 0.907851 0.9065 0.9065 