# vtk DataFile Version 3.0
LBM simulation at step 120
ASCII
DATASET STRUCTURED_POINTS
DIMENSIONS 256 256 1
ORIGIN 0 0 0
SPACING 1 1 1
POINT_DATA 65536
SCALARS density float
LOOKUP_TABLE default
0.74052 1.0866 1.13327 1.0911 1.08295 1.0918 1.0936 1.09181 1.09123 1.09138 1.09132 1.09112 1.09096 1.09084 1.09072 1.0906 1.09048 1.09038 1.09027 1.09018 1.09008 1.09 1.08991 1.08983 1.08975 1.08967 1.08959 1.08952 1.08944 1.08937 1.0893 1.08923 1.08916 1.08908 1.08901 1.08894 1.08886 1.08879 1.08871 1.08863 1.08855 1.08847 1.08838 1.0883 1.08821 1.08811 1.08801 1.08791 1.0878 1.08768 1.08755 1.08742 1.08727 1.08712 1.08695 1.08678 1.08661 1.08643 1.08626 1.08606 1.08576 1.08523 1.08427 1.08257 1.07976 1.0755 1.06952 1.06181 1.05271 1.04286 1.0331 1.02425 1.01685 1.01113 1.007 1.00421 1.00242 1.00133 1.00071 1.00036 1.00017 1.00008 1.00004 1.00002 1.00001 1 1 1 1 1 1 1 1 1 1 1 1 1 1 1 1 1 1 1 1 1 1 1 1 1 1 1 1 1 1 1 1 1 1 1 1 1 1 1 1 1 1 1 1 1 1 1 1 1 1 1 1 1 1 1 1 1 1 1 1 1 1 1 1 1 1 1 1 1 1 1 1 1 1 1 1 1 1 1 1 1 1 1 1 1 1 1 0.999999 0.999998 0.999995 0.99999 0.999979 0.999958 0.999921 0.999857 0.999751 0.999584 0.99933 0.998963 0.998453 0.997771 0.996897 0.995819 0.994537 0.993064 0.991429 0.989668 0.987825 0.985946 0.984072 0.98224 0.980478 0.978803 0.977221 0.975731 0.974325 0.972992 0.971718 0.970491 0.9693 0.968136 0.966992 0.965864 0.964748 0.963643 0.962546 0.961457 0.960374 0.959295 0.95822 0.957146 0.956074 0.955 0.953925 0.952847 0.951765 0.950677 0.949582 0.948479 0.947366 0.946243 0.945106 0.943955 0.942787 0.941601 0.940394 0.939163 0.937905 0.936618 0.935297 0.933937 0.932534 0.931081 0.92957 0.927994 0.926341 0.924597 0.922747 0.920768 0.91863 0.916306 0.913742 0.910824 0.907461 0.903757 0.899276 0.891945 0.882607 0.878103 0.855751 0.697825 
1.12966 1.06305 1.05812 1.09324 1.0967 1.09124 1.0904 1.09155 1.09166 1.09131 1.09112 1.09104 1.09092 1.0908 1.09067 1.09056 1.09044 1.09035 1.09024 1.09015 1.09005 1.08997 1.08987 1.0898 1.08971 1.08964 1.08956 1.08949 1.08941 1.08934 1.08926 1.08919 1.08911 1.08904 1.08897 1.08889 1.08882 1.08874 1.08866 1.08858 1.0885 1.08841 1.08832 1.08823 1.08814 1.08804 1.08793 1.08782 1.0877 1.08758 1.08745 1.08731 1.08715 1.08699 1.08681 1.08662 1.08643 1.08622 1.08599 1.0857 1.08528 1.08459 1.08345 1.0816 1.07876 1.07465 1.06905 1.06193 1.05347 1.04417 1.03473 1.02592 1.01835 1.01233 1.00789 1.00482 1.00282 1.00158 1.00085 1.00044 1.00022 1.0001 1.00005 1.00002 1.00001 1 1 1 1 1 1 1 1 1 1 1 1 1 1 1 1 1 1 1 1 1 1 1 1 1 1 1 1 1 1 1 1 1 1 1 1 1 1 1 1 1 1 1 1 1 1 1 1 1 1 1 1 1 1 1 1 1 1 1 1 1 1 1 1 1 1 1 1 1 1 1 1 1 1 1 1 1 1 1 1 1 1 1 1 1 1 0.999999 0.999999 0.999997 0.999994 0.999987 0.999974 0.99995 0.999908 0.999835 0.999717 0.999534 0.99926 0.998868 0.99833 0.997621 0.996723 0.995626 0.994334 0.992861 0.991236 0.989493 0.987676 0.985825 0.983982 0.982178 0.98044 0.978783 0.977214 0.975731 0.974328 0.972994 0.971717 0.970487 0.969291 0.968123 0.966976 0.965846 0.964728 0.963621 0.962523 0.961432 0.960347 0.959267 0.95819 0.957115 0.95604 0.954965 0.953888 0.952808 0.951723 0.950632 0.949535 0.948429 0.947313 0.946186 0.945046 0.943891 0.942718 0.941527 0.940315 0.939078 0.937814 0.936519 0.935189 0.93382 0.932406 0.93094 0.929415 0.927822 0.926149 0.924381 0.922502 0.920489 0.918311 0.915921 0.913273 0.910334 0.906931 0.902621 0.897559 0.892737 0.884621 0.861363 0.838143 0.838143 
1.13886 1.06716 1.07598 1.09554 1.09251 1.08998 1.09105 1.09166 1.09134 1.09111 1.09105 1.09098 1.09084 1.09073 1.09061 1.09052 1.0904 1.09031 1.09019 1.09011 1.09001 1.08993 1.08983 1.08977 1.08967 1.0896 1.08952 1.08945 1.08937 1.0893 1.08922 1.08915 1.08907 1.089 1.08892 1.08884 1.08876 1.08869 1.0886 1.08852 1.08843 1.08834 1.08825 1.08816 1.08806 1.08795 1.08784 1.08773 1.0876 1.08747 1.08733 1.08717 1.08701 1.08683 1.08664 1.08643 1.0862 1.08595 1.08566 1.08529 1.08477 1.08397 1.08273 1.08084 1.07807 1.07417 1.06896 1.06232 1.05437 1.04546 1.03622 1.0274 1.01964 1.01336 1.00864 1.00533 1.00314 1.00177 1.00096 1.0005 1.00025 1.00012 1.00005 1.00002 1.00001 1 1 1 1 1 1 1 1 1 1 1 1 1 1 1 1 1 1 1 1 1 1 1 1 1 1 1 1 1 1 1 1 1 1 1 1 1 1 1 1 1 1 1 1 1 1 1 1 1 1 1 1 1 1 1 1 1 1 1 1 1 1 1 1 1 1 1 1 1 1 1 1 1 1 1 1 1 1 1 1 1 1 1 1 1 1 0.999999 0.999999 0.999997 0.999993 0.999986 0.999971 0.999945 0.999899 0.99982 0.999693 0.999498 0.999209 0.998798 0.99824 0.997509 0.996591 0.995477 0.994174 0.992698 0.991077 0.989347 0.987547 0.985719 0.9839 0.982121 0.980404 0.978766 0.97721 0.975737 0.974339 0.973007 0.97173 0.970497 0.9693 0.968129 0.966979 0.965847 0.964727 0.963618 0.962519 0.961426 0.96034 0.959258 0.95818 0.957103 0.956027 0.95495 0.953872 0.95279 0.951703 0.950611 0.949512 0.948404 0.947286 0.946156 0.945014 0.943856 0.942681 0.941487 0.940272 0.939031 0.937764 0.936465 0.935131 0.933758 0.932339 0.930868 0.929338 0.927739 0.92606 0.924287 0.922402 0.920382 0.918204 0.915826 0.913175 0.910207 0.906951 0.903093 0.897865 0.892196 0.888262 0.878645 0.86218 0.86218 
1.05566 1.0915 1.10433 1.08673 1.08661 1.09196 1.09212 1.09095 1.09088 1.09109 1.09101 1.09086 1.09074 1.09066 1.09055 1.09046 1.09034 1.09026 1.09014 1.09007 1.08996 1.08989 1.08979 1.08972 1.08963 1.08956 1.08947 1.08941 1.08932 1.08925 1.08917 1.0891 1.08902 1.08895 1.08886 1.08879 1.08871 1.08863 1.08854 1.08846 1.08837 1.08827 1.08818 1.08808 1.08797 1.08786 1.08775 1.08762 1.08749 1.08735 1.0872 1.08704 1.08686 1.08667 1.08646 1.08623 1.08598 1.08569 1.08536 1.08492 1.08432 1.08345 1.08216 1.08026 1.07756 1.07384 1.06891 1.06267 1.05515 1.04661 1.03758 1.02876 1.02086 1.01434 1.00937 1.00582 1.00346 1.00197 1.00107 1.00056 1.00028 1.00013 1.00006 1.00003 1.00001 1 1 1 1 1 1 1 1 1 1 1 1 1 1 1 1 1 1 1 1 1 1 1 1 1 1 1 1 1 1 1 1 1 1 1 1 1 1 1 1 1 1 1 1 1 1 1 1 1 1 1 1 1 1 1 1 1 1 1 1 1 1 1 1 1 1 1 1 1 1 1 1 1 1 1 1 1 1 1 1 1 1 1 1 1 1 0.999999 0.999998 0.999997 0.999993 0.999984 0.999969 0.999941 0.999891 0.999808 0.999674 0.999469 0.999167 0.998742 0.998168 0.997421 0.996488 0.995363 0.994053 0.992576 0.99096 0.989241 0.987457 0.985647 0.983847 0.982087 0.980388 0.978763 0.977219 0.975753 0.974359 0.973029 0.971753 0.97052 0.969321 0.968148 0.966997 0.965863 0.964742 0.963632 0.962531 0.961438 0.96035 0.959268 0.958188 0.95711 0.956033 0.954955 0.953875 0.952792 0.951705 0.950611 0.949511 0.948402 0.947283 0.946152 0.945009 0.94385 0.942674 0.94148 0.940263 0.939022 0.937754 0.936456 0.935122 0.933749 0.932331 0.930863 0.929336 0.927742 0.926069 0.924306 0.922437 0.920438 0.918284 0.915954 0.913415 0.910537 0.90724 0.903807 0.900028 0.89402 0.886895 0.88387 0.880183 0.880183 
1.09515 1.09493 1.08737 1.08745 1.09248 1.09153 1.09036 1.09078 1.0911 1.09096 1.09079 1.09074 1.09067 1.09058 1.09047 1.09039 1.09027 1.0902 1.09009 1.09002 1.08991 1.08985 1.08974 1.08968 1.08958 1.08952 1.08942 1.08936 1.08927 1.08921 1.08912 1.08905 1.08896 1.08889 1.08881 1.08873 1.08865 1.08856 1.08848 1.08839 1.0883 1.0882 1.0881 1.088 1.08789 1.08777 1.08765 1.08752 1.08739 1.08724 1.08708 1.08691 1.08672 1.08651 1.08629 1.08604 1.08577 1.08545 1.08507 1.08459 1.08392 1.08298 1.08163 1.07971 1.07707 1.07351 1.06887 1.06302 1.05591 1.04771 1.03889 1.03009 1.02205 1.0153 1.01007 1.00631 1.00377 1.00215 1.00118 1.00062 1.00031 1.00015 1.00007 1.00003 1.00001 1.00001 1 1 1 1 1 1 1 1 1 1 1 1 1 1 1 1 1 1 1 1 1 1 1 1 1 1 1 1 1 1 1 1 1 1 1 1 1 1 1 1 1 1 1 1 1 1 1 1 1 1 1 1 1 1 1 1 1 1 1 1 1 1 1 1 1 1 1 1 1 1 1 1 1 1 1 1 1 1 1 1 1 1 1 1 1 0.999999 0.999998 0.999996 0.999992 0.999983 0.999967 0.999937 0.999885 0.999798 0.999659 0.999447 0.999136 0.998699 0.998113 0.997354 0.996409 0.995276 0.993962 0.992486 0.990877 0.989168 0.987399 0.985607 0.983825 0.982081 0.980397 0.978784 0.977248 0.975787 0.974397 0.973068 0.971791 0.970556 0.969356 0.968182 0.967029 0.965894 0.964771 0.963661 0.962559 0.961465 0.960377 0.959293 0.958213 0.957134 0.956057 0.954978 0.953898 0.952814 0.951726 0.950632 0.949531 0.948422 0.947303 0.946173 0.945029 0.943871 0.942696 0.941502 0.940286 0.939047 0.937782 0.936486 0.935156 0.933788 0.932376 0.930916 0.929399 0.927818 0.926164 0.924423 0.922584 0.92063 0.918536 0.916268 0.913824 0.911194 0.908189 0.904716 0.901401 0.897994 0.892692 0.888158 0.885663 0.885663 
1.09705 1.0902 1.08824 1.09285 1.09136 1.08967 1.09067 1.09112 1.09081 1.09066 1.09068 1.09066 1.09055 1.09048 1.09038 1.09031 1.0902 1.09014 1.09002 1.08996 1.08985 1.08979 1.08968 1.08963 1.08952 1.08947 1.08937 1.08931 1.08921 1.08916 1.08906 1.089 1.08891 1.08884 1.08875 1.08867 1.08858 1.0885 1.08841 1.08832 1.08822 1.08813 1.08802 1.08792 1.0878 1.08769 1.08756 1.08742 1.08728 1.08713 1.08696 1.08678 1.08658 1.08637 1.08613 1.08586 1.08556 1.08522 1.08479 1.08425 1.08352 1.08251 1.08112 1.0792 1.07662 1.07323 1.06887 1.06337 1.05665 1.04879 1.04015 1.03138 1.02321 1.01624 1.01077 1.00678 1.00407 1.00234 1.00128 1.00067 1.00034 1.00016 1.00008 1.00003 1.00001 1.00001 1 1 1 1 1 1 1 1 1 1 1 1 1 1 1 1 1 1 1 1 1 1 1 1 1 1 1 1 1 1 1 1 1 1 1 1 1 1 1 1 1 1 1 1 1 1 1 1 1 1 1 1 1 1 1 1 1 1 1 1 1 1 1 1 1 1 1 1 1 1 1 1 1 1 1 1 1 1 1 1 1 1 1 1 1 0.999999 0.999998 0.999996 0.999992 0.999983 0.999966 0.999935 0.999881 0.999791 0.999649 0.999431 0.999113 0.998669 0.998073 0.997306 0.996354 0.995216 0.9939 0.992427 0.990824 0.989127 0.987372 0.985595 0.983829 0.9821 0.980428 0.978826 0.977297 0.975841 0.974453 0.973124 0.971846 0.97061 0.969408 0.968232 0.967077 0.96594 0.964817 0.963705 0.962603 0.961508 0.960419 0.959335 0.958254 0.957175 0.956097 0.955018 0.953937 0.952853 0.951765 0.950671 0.949571 0.948462 0.947344 0.946214 0.945072 0.943915 0.942741 0.94155 0.940337 0.939102 0.93784 0.93655 0.935226 0.933866 0.932465 0.931017 0.929516 0.927954 0.926325 0.924616 0.922816 0.920912 0.918894 0.916733 0.914384 0.911873 0.909256 0.906258 0.902748 0.899604 0.896544 0.892997 0.890224 0.890224 
1.08827 1.09071 1.09217 1.09101 1.0897 1.09079 1.09103 1.09056 1.09052 1.09064 1.09059 1.09051 1.09043 1.09039 1.09029 1.09023 1.09012 1.09006 1.08995 1.0899 1.08978 1.08974 1.08962 1.08958 1.08946 1.08942 1.08931 1.08926 1.08916 1.0891 1.08901 1.08894 1.08885 1.08878 1.08869 1.08861 1.08852 1.08844 1.08834 1.08825 1.08815 1.08805 1.08795 1.08784 1.08772 1.0876 1.08747 1.08733 1.08718 1.08701 1.08684 1.08665 1.08644 1.08621 1.08596 1.08568 1.08535 1.08497 1.0845 1.08391 1.08312 1.08206 1.08063 1.07872 1.07622 1.073 1.0689 1.06374 1.05738 1.04983 1.04139 1.03264 1.02434 1.01716 1.01144 1.00724 1.00437 1.00251 1.00138 1.00073 1.00037 1.00018 1.00008 1.00004 1.00002 1.00001 1 1 1 1 1 1 1 1 1 1 1 1 1 1 1 1 1 1 1 1 1 1 1 1 1 1 1 1 1 1 1 1 1 1 1 1 1 1 1 1 1 1 1 1 1 1 1 1 1 1 1 1 1 1 1 1 1 1 1 1 1 1 1 1 1 1 1 1 1 1 1 1 1 1 1 1 1 1 1 1 1 1 1 1 1 0.999999 0.999998 0.999996 0.999992 0.999982 0.999965 0.999934 0.999879 0.999788 0.999642 0.999421 0.9991 0.998651 0.99805 0.997277 0.996321 0.995181 0.993866 0.992397 0.990802 0.989115 0.987373 0.98561 0.983858 0.982143 0.980482 0.978888 0.977366 0.975913 0.974527 0.973198 0.971919 0.970681 0.969476 0.968298 0.967142 0.966003 0.964879 0.963766 0.962662 0.961566 0.960477 0.959392 0.958311 0.957231 0.956153 0.955074 0.953993 0.952909 0.951822 0.950728 0.949628 0.94852 0.947403 0.946275 0.945134 0.94398 0.942809 0.941621 0.940412 0.939181 0.937926 0.936642 0.935327 0.933978 0.932589 0.931156 0.929674 0.928136 0.926535 0.924863 0.923111 0.921265 0.919314 0.917257 0.915068 0.912689 0.910184 0.907657 0.904815 0.901741 0.898946 0.896121 0.893555 0.893555 
1.09064 1.0909 1.09081 1.09013 1.09072 1.0909 1.09039 1.09042 1.09057 1.09051 1.09041 1.09039 1.09033 1.09028 1.09019 1.09014 1.09004 1.08999 1.08988 1.08983 1.08972 1.08967 1.08956 1.08952 1.0894 1.08936 1.08925 1.0892 1.0891 1.08905 1.08895 1.08889 1.08879 1.08872 1.08863 1.08855 1.08846 1.08837 1.08828 1.08818 1.08808 1.08798 1.08787 1.08775 1.08763 1.08751 1.08737 1.08722 1.08707 1.0869 1.08672 1.08652 1.0863 1.08606 1.08579 1.08548 1.08513 1.08472 1.08421 1.08357 1.08273 1.08163 1.08018 1.07829 1.07587 1.07282 1.06897 1.06413 1.05811 1.05086 1.04259 1.03387 1.02545 1.01805 1.0121 1.00769 1.00465 1.00269 1.00148 1.00078 1.0004 1.00019 1.00009 1.00004 1.00002 1.00001 1 1 1 1 1 1 1 1 1 1 1 1 1 1 1 1 1 1 1 1 1 1 1 1 1 1 1 1 1 1 1 1 1 1 1 1 1 1 1 1 1 1 1 1 1 1 1 1 1 1 1 1 1 1 1 1 1 1 1 1 1 1 1 1 1 1 1 1 1 1 1 1 1 1 1 1 1 1 1 1 1 1 1 1 1 0.999999 0.999998 0.999996 0.999992 0.999982 0.999965 0.999933 0.999878 0.999786 0.99964 0.999418 0.999095 0.998644 0.998042 0.997268 0.996312 0.995172 0.993861 0.992397 0.99081 0.989133 0.987402 0.985652 0.983913 0.982209 0.980558 0.978971 0.977453 0.976004 0.974618 0.973289 0.972008 0.970768 0.969562 0.968382 0.967223 0.966083 0.964957 0.963842 0.962738 0.961641 0.960551 0.959466 0.958384 0.957304 0.956225 0.955146 0.954065 0.952982 0.951895 0.950802 0.949703 0.948596 0.94748 0.946354 0.945216 0.944064 0.942897 0.941712 0.940509 0.939284 0.938035 0.936759 0.935454 0.934116 0.932742 0.931326 0.929865 0.928352 0.926783 0.925148 0.923444 0.921661 0.919784 0.917806 0.915741 0.913565 0.91121 0.908779 0.906349 0.903751 0.901132 0.898649 0.896336 0.896336 
1.09121 1.09049 1.09029 1.09056 1.09071 1.09034 1.09036 1.0905 1.09039 1.09032 1.09031 1.09029 1.09021 1.09017 1.09009 1.09005 1.08995 1.08991 1.0898 1.08976 1.08964 1.08961 1.08949 1.08945 1.08934 1.0893 1.08919 1.08915 1.08904 1.08899 1.08889 1.08883 1.08873 1.08866 1.08857 1.08849 1.08839 1.08831 1.08821 1.08811 1.08801 1.0879 1.08779 1.08767 1.08754 1.08741 1.08727 1.08712 1.08696 1.08678 1.08659 1.08638 1.08615 1.08589 1.08561 1.08528 1.08491 1.08446 1.08392 1.08323 1.08236 1.08122 1.07975 1.07789 1.07556 1.07267 1.06906 1.06453 1.05884 1.05187 1.04377 1.03506 1.02653 1.01893 1.01275 1.00813 1.00493 1.00285 1.00158 1.00083 1.00042 1.00021 1.0001 1.00004 1.00002 1.00001 1 1 1 1 1 1 1 1 1 1 1 1 1 1 1 1 1 1 1 1 1 1 1 1 1 1 1 1 1 1 1 1 1 1 1 1 1 1 1 1 1 1 1 1 1 1 1 1 1 1 1 1 1 1 1 1 1 1 1 1 1 1 1 1 1 1 1 1 1 1 1 1 1 1 1 1 1 1 1 1 1 1 1 1 1 0.999999 0.999998 0.999996 0.999992 0.999983 0.999965 0.999934 0.999879 0.999788 0.999643 0.999421 0.999099 0.99865 0.998049 0.997277 0.996324 0.995189 0.993882 0.992426 0.990847 0.98918 0.987461 0.985721 0.983993 0.982298 0.980655 0.979074 0.97756 0.976112 0.974727 0.973397 0.972114 0.970872 0.969663 0.968481 0.967321 0.966179 0.965051 0.963935 0.962829 0.961732 0.960641 0.959555 0.958472 0.957392 0.956313 0.955234 0.954154 0.953071 0.951984 0.950892 0.949794 0.948689 0.947575 0.946451 0.945315 0.944166 0.943003 0.941823 0.940624 0.939406 0.938164 0.936898 0.935603 0.934278 0.932918 0.931521 0.930081 0.928595 0.927057 0.925462 0.923803 0.922076 0.920277 0.91839 0.916411 0.914367 0.912234 0.909975 0.907686 0.905382 0.903024 0.900731 0.898601 0.898601 
1.09028 1.09041 1.09047 1.09047 1.09031 1.0903 1.0904 1.0903 1.09023 1.09025 1.09021 1.09016 1.0901 1.09007 1.08999 1.08995 1.08986 1.08982 1.08972 1.08968 1.08957 1.08954 1.08942 1.08939 1.08928 1.08924 1.08913 1.08908 1.08898 1.08893 1.08882 1.08876 1.08867 1.0886 1.0885 1.08842 1.08832 1.08824 1.08813 1.08804 1.08793 1.08782 1.0877 1.08758 1.08745 1.08732 1.08717 1.08701 1.08684 1.08666 1.08646 1.08624 1.086 1.08573 1.08543 1.08508 1.08468 1.08421 1.08363 1.08291 1.08199 1.08082 1.07935 1.07753 1.07529 1.07256 1.06919 1.06495 1.05957 1.05286 1.04492 1.03624 1.02758 1.01978 1.01337 1.00856 1.0052 1.00301 1.00167 1.00088 1.00045 1.00022 1.0001 1.00005 1.00002 1.00001 1 1 1 1 1 1 1 1 1 1 1 1 1 1 1 1 1 1 1 1 1 1 1 1 1 1 1 1 1 1 1 1 1 1 1 1 1 1 1 1 1 1 1 1 1 1 1 1 1 1 1 1 1 1 1 1 1 1 1 1 1 1 1 1 1 1 1 1 1 1 1 1 1 1 1 1 1 1 1 1 1 1 1 1 1 0.999999 0.999998 0.999996 0.999992 0.999983 0.999966 0.999935 0.999882 0.999792 0.999649 0.99943 0.999111 0.998666 0.99807 0.997304 0.996357 0.995229 0.993931 0.992483 0.990914 0.989257 0.987547 0.985818 0.984098 0.982411 0.980775 0.979198 0.977687 0.97624 0.974853 0.973522 0.972237 0.970993 0.969781 0.968597 0.967434 0.96629 0.965161 0.964044 0.962937 0.961838 0.960746 0.95966 0.958577 0.957496 0.956417 0.955338 0.954258 0.953175 0.952089 0.950998 0.949902 0.948798 0.947686 0.946564 0.945431 0.944286 0.943126 0.941951 0.940759 0.939547 0.938313 0.937056 0.935773 0.93446 0.933116 0.931737 0.930319 0.928859 0.927352 0.925795 0.924182 0.922508 0.920772 0.918972 0.917094 0.91514 0.913138 0.911069 0.908933 0.906791 0.904646 0.902521 0.900522 0.900522 
1.09028 1.09032 1.0903 1.09026 1.09023 1.09028 1.09022 1.09016 1.09017 1.09014 1.09008 1.09006 1.09 1.08997 1.08989 1.08986 1.08977 1.08974 1.08964 1.0896 1.0895 1.08947 1.08935 1.08932 1.08921 1.08917 1.08906 1.08902 1.08891 1.08886 1.08876 1.0887 1.0886 1.08853 1.08843 1.08835 1.08825 1.08816 1.08806 1.08796 1.08785 1.08774 1.08762 1.08749 1.08736 1.08722 1.08706 1.0869 1.08672 1.08653 1.08633 1.0861 1.08584 1.08556 1.08524 1.08488 1.08445 1.08395 1.08334 1.08258 1.08163 1.08045 1.07898 1.07719 1.07505 1.07248 1.06934 1.06538 1.0603 1.05384 1.04606 1.03738 1.02862 1.02061 1.01398 1.00897 1.00546 1.00316 1.00175 1.00093 1.00047 1.00023 1.00011 1.00005 1.00002 1.00001 1 1 1 1 1 1 1 1 1 1 1 1 1 1 1 1 1 1 1 1 1 1 1 1 1 1 1 1 1 1 1 1 1 1 1 1 1 1 1 1 1 1 1 1 1 1 1 1 1 1 1 1 1 1 1 1 1 1 1 1 1 1 1 1 1 1 1 1 1 1 1 1 1 1 1 1 1 1 1 1 1 1 1 1 1 0.999999 0.999998 0.999996 0.999992 0.999984 0.999968 0.999938 0.999885 0.999798 0.999658 0.999444 0.999131 0.998693 0.998105 0.997348 0.996411 0.995294 0.994006 0.992568 0.991009 0.989362 0.987662 0.985942 0.98423 0.982549 0.980917 0.979343 0.977833 0.976386 0.974998 0.973665 0.972378 0.97113 0.969916 0.968729 0.967564 0.966418 0.965287 0.964168 0.96306 0.96196 0.960868 0.95978 0.958697 0.957616 0.956537 0.955458 0.954378 0.953296 0.95221 0.95112 0.950025 0.948923 0.947813 0.946694 0.945564 0.944422 0.943267 0.942097 0.940911 0.939706 0.93848 0.937233 0.93596 0.934661 0.933333 0.931972 0.930576 0.929141 0.927665 0.926143 0.924573 0.922952 0.921273 0.91954 0.917752 0.915901 0.913995 0.912053 0.910067 0.908054 0.906048 0.904062 0.90217 0.90217 
1.09026 1.09017 1.09015 1.09016 1.09016 1.09013 1.09008 1.09009 1.09006 1.09002 1.08998 1.08996 1.0899 1.08987 1.0898 1.08977 1.08968 1.08965 1.08955 1.08953 1.08942 1.08939 1.08928 1.08925 1.08914 1.0891 1.08899 1.08895 1.08885 1.0888 1.08869 1.08863 1.08853 1.08846 1.08836 1.08828 1.08818 1.08809 1.08798 1.08788 1.08777 1.08765 1.08753 1.0874 1.08726 1.08711 1.08696 1.08679 1.0866 1.08641 1.08619 1.08595 1.08569 1.08539 1.08505 1.08467 1.08423 1.08369 1.08305 1.08226 1.08129 1.08009 1.07863 1.07689 1.07485 1.07244 1.06952 1.06583 1.06103 1.05481 1.04717 1.03851 1.02962 1.02142 1.01458 1.00937 1.00571 1.00331 1.00183 1.00097 1.00049 1.00024 1.00011 1.00005 1.00002 1.00001 1 1 1 1 1 1 1 1 1 1 1 1 1 1 1 1 1 1 1 1 1 1 1 1 1 1 1 1 1 1 1 1 1 1 1 1 1 1 1 1 1 1 1 1 1 1 1 1 1 1 1 1 1 1 1 1 1 1 1 1 1 1 1 1 1 1 1 1 1 1 1 1 1 1 1 1 1 1 1 1 1 1 1 1 1 0.999999 0.999999 0.999997 0.999993 0.999985 0.999969 0.999941 0.99989 0.999806 0.999671 0.999463 0.999158 0.998729 0.998153 0.997409 0.996485 0.995381 0.994106 0.992681 0.991133 0.989497 0.987806 0.986093 0.984387 0.982711 0.981082 0.97951 0.978 0.976552 0.975162 0.973825 0.972535 0.971285 0.970068 0.968878 0.967711 0.966562 0.965429 0.964309 0.963199 0.962098 0.961005 0.959916 0.958832 0.957751 0.956672 0.955593 0.954513 0.953432 0.952347 0.951259 0.950165 0.949064 0.947957 0.94684 0.945713 0.944576 0.943425 0.94226 0.941079 0.939882 0.938665 0.937427 0.936166 0.93488 0.933567 0.932224 0.930848 0.929438 0.927991 0.926503 0.924973 0.923398 0.921775 0.920103 0.918385 0.916622 0.91481 0.912962 0.911089 0.909193 0.907295 0.905416 0.90361 0.90361 
1.09008 1.09005 1.09006 1.09005 1.09003 1.09001 1.09 1.08998 1.08994 1.08992 1.08988 1.08985 1.0898 1.08977 1.0897 1.08968 1.08959 1.08957 1.08947 1.08944 1.08934 1.08931 1.0892 1.08918 1.08907 1.08903 1.08892 1.08888 1.08878 1.08873 1.08862 1.08856 1.08846 1.08839 1.08829 1.08821 1.0881 1.08801 1.0879 1.0878 1.08768 1.08756 1.08744 1.0873 1.08716 1.08701 1.08685 1.08667 1.08648 1.08628 1.08605 1.0858 1.08552 1.08522 1.08486 1.08446 1.08399 1.08344 1.08277 1.08195 1.08095 1.07974 1.0783 1.07662 1.07468 1.07243 1.06973 1.0663 1.06177 1.05578 1.04827 1.03961 1.03061 1.02221 1.01515 1.00975 1.00594 1.00345 1.00191 1.00101 1.00051 1.00025 1.00012 1.00005 1.00002 1.00001 1 1 1 1 1 1 1 1 1 1 1 1 1 1 1 1 1 1 1 1 1 1 1 1 1 1 1 1 1 1 1 1 1 1 1 1 1 1 1 1 1 1 1 1 1 1 1 1 1 1 1 1 1 1 1 1 1 1 1 1 1 1 1 1 1 1 1 1 1 1 1 1 1 1 1 1 1 1 1 1 1 1 1 1 1 0.999999 0.999999 0.999997 0.999993 0.999986 0.999971 0.999944 0.999896 0.999816 0.999686 0.999486 0.99919 0.998774 0.998212 0.997484 0.996577 0.99549 0.994231 0.99282 0.991286 0.989661 0.987979 0.986273 0.984572 0.982899 0.981271 0.979699 0.978188 0.976737 0.975345 0.974005 0.972711 0.971457 0.970237 0.969044 0.967874 0.966723 0.965588 0.964466 0.963355 0.962253 0.961158 0.960069 0.958984 0.957903 0.956823 0.955744 0.954665 0.953584 0.9525 0.951413 0.95032 0.949222 0.948116 0.947002 0.945879 0.944745 0.943599 0.942439 0.941265 0.940074 0.938866 0.937637 0.936388 0.935115 0.933816 0.932491 0.931136 0.92975 0.928329 0.926873 0.92538 0.923846 0.922273 0.920658 0.919001 0.917307 0.915577 0.913813 0.912026 0.910224 0.908417 0.906623 0.904887 0.904887 
1.08997 1.08994 1.08994 1.08993 1.08992 1.08991 1.08989 1.08987 1.08984 1.08982 1.08978 1.08975 1.0897 1.08968 1.08961 1.08958 1.0895 1.08948 1.08938 1.08936 1.08926 1.08924 1.08913 1.0891 1.08899 1.08896 1.08885 1.08881 1.0887 1.08865 1.08855 1.08849 1.08839 1.08831 1.08821 1.08813 1.08802 1.08793 1.08782 1.08771 1.08759 1.08747 1.08734 1.08721 1.08706 1.0869 1.08673 1.08655 1.08636 1.08614 1.08591 1.08565 1.08536 1.08504 1.08467 1.08425 1.08376 1.08318 1.08249 1.08165 1.08063 1.07942 1.07799 1.07637 1.07454 1.07246 1.06997 1.06679 1.06251 1.05674 1.04935 1.04069 1.03157 1.02297 1.0157 1.01011 1.00617 1.00358 1.00198 1.00105 1.00053 1.00026 1.00012 1.00005 1.00002 1.00001 1 1 1 1 1 1 1 1 1 1 1 1 1 1 1 1 1 1 1 1 1 1 1 1 1 1 1 1 1 1 1 1 1 1 1 1 1 1 1 1 1 1 1 1 1 1 1 1 1 1 1 1 1 1 1 1 1 1 1 1 1 1 1 1 1 1 1 1 1 1 1 1 1 1 1 1 1 1 1 1 1 1 1 1 1 0.999999 0.999999 0.999997 0.999994 0.999987 0.999973 0.999948 0.999903 0.999827 0.999703 0.999512 0.999228 0.998827 0.998282 0.997573 0.996686 0.995619 0.994379 0.992986 0.991466 0.989853 0.98818 0.98648 0.984783 0.983113 0.981485 0.979912 0.978398 0.976944 0.975547 0.974203 0.972906 0.971648 0.970424 0.969228 0.968055 0.966901 0.965764 0.96464 0.963527 0.962423 0.961327 0.960237 0.959152 0.95807 0.95699 0.955911 0.954832 0.953751 0.952669 0.951582 0.950492 0.949395 0.948292 0.947181 0.946061 0.944931 0.943789 0.942635 0.941467 0.940283 0.939083 0.937864 0.936625 0.935365 0.934081 0.932773 0.931437 0.930073 0.928678 0.927252 0.925792 0.924297 0.922766 0.921201 0.9196 0.917966 0.916301 0.91461 0.912896 0.911169 0.909436 0.907713 0.906036 0.906036 
1.08987 1.08983 1.08983 1.08983 1.08982 1.0898 1.08978 1.08976 1.08974 1.08972 1.08968 1.08966 1.0896 1.08958 1.08952 1.08949 1.08941 1.08939 1.0893 1.08928 1.08918 1.08916 1.08905 1.08903 1.08892 1.08889 1.08878 1.08874 1.08863 1.08858 1.08847 1.08841 1.08831 1.08824 1.08813 1.08805 1.08794 1.08785 1.08773 1.08762 1.0875 1.08738 1.08725 1.08711 1.08695 1.08679 1.08662 1.08643 1.08623 1.08601 1.08576 1.0855 1.0852 1.08486 1.08448 1.08404 1.08353 1.08293 1.08221 1.08134 1.08031 1.0791 1.07771 1.07615 1.07443 1.07252 1.07024 1.0673 1.06327 1.0577 1.05042 1.04175 1.0325 1.02371 1.01623 1.01046 1.00638 1.0037 1.00205 1.00108 1.00055 1.00027 1.00012 1.00005 1.00002 1.00001 1 1 1 1 1 1 1 1 1 1 1 1 1 1 1 1 1 1 1 1 1 1 1 1 1 1 1 1 1 1 1 1 1 1 1 1 1 1 1 1 1 1 1 1 1 1 1 1 1 1 1 1 1 1 1 1 1 1 1 1 1 1 1 1 1 1 1 1 1 1 1 1 1 1 1 1 1 1 1 1 1 1 1 1 1 1 0.999999 0.999997 0.999994 0.999988 0.999975 0.999952 0.99991 0.999839 0.999722 0.999541 0.999271 0.998886 0.998361 0.997674 0.996811 0.995767 0.99455 0.993177 0.991674 0.990074 0.98841 0.986717 0.985023 0.983353 0.981724 0.980148 0.97863 0.977172 0.975771 0.974422 0.973119 0.971857 0.970629 0.969429 0.968253 0.967096 0.965956 0.96483 0.963715 0.96261 0.961513 0.960422 0.959336 0.958253 0.957173 0.956094 0.955015 0.953935 0.952853 0.951768 0.950679 0.949585 0.948484 0.947376 0.946259 0.945133 0.943996 0.942847 0.941685 0.940508 0.939316 0.938106 0.936878 0.93563 0.934361 0.933068 0.931751 0.930408 0.929037 0.927638 0.926208 0.924748 0.923257 0.921735 0.920182 0.9186 0.916992 0.91536 0.913709 0.912044 0.910373 0.90871 0.907082 0.907082 
1.08976 1.08972 1.08972 1.08972 1.08971 1.0897 1.08968 1.08966 1.08964 1.08962 1.08958 1.08956 1.08951 1.08949 1.08942 1.0894 1.08932 1.0893 1.08921 1.0892 1.0891 1.08908 1.08897 1.08895 1.08884 1.08881 1.0887 1.08866 1.08855 1.0885 1.0884 1.08834 1.08823 1.08816 1.08805 1.08797 1.08786 1.08776 1.08765 1.08754 1.08741 1.08728 1.08715 1.087 1.08685 1.08668 1.0865 1.08631 1.0861 1.08587 1.08562 1.08534 1.08503 1.08468 1.08428 1.08382 1.08329 1.08267 1.08193 1.08105 1.08001 1.0788 1.07744 1.07596 1.07436 1.07261 1.07054 1.06784 1.06403 1.05865 1.05147 1.04279 1.03341 1.02443 1.01674 1.0108 1.00659 1.00382 1.00211 1.00111 1.00056 1.00027 1.00013 1.00006 1.00002 1.00001 1 1 1 1 1 1 1 1 1 1 1 1 1 1 1 1 1 1 1 1 1 1 1 1 1 1 1 1 1 1 1 1 1 1 1 1 1 1 1 1 1 1 1 1 1 1 1 1 1 1 1 1 1 1 1 1 1 1 1 1 1 1 1 1 1 1 1 1 1 1 1 1 1 1 1 1 1 1 1 1 1 1 1 1 1 1 0.999999 0.999998 0.999995 0.999989 0.999978 0.999956 0.999918 0.999852 0.999743 0.999573 0.999317 0.998951 0.998448 0.997786 0.99695 0.995934 0.994742 0.993392 0.991908 0.990322 0.988669 0.986982 0.985291 0.983621 0.981989 0.980409 0.978886 0.977422 0.976015 0.97466 0.973352 0.972085 0.970852 0.969648 0.968468 0.967309 0.966166 0.965038 0.963921 0.962814 0.961715 0.960623 0.959536 0.958453 0.957372 0.956293 0.955215 0.954135 0.953054 0.95197 0.950883 0.94979 0.948692 0.947586 0.946473 0.94535 0.944218 0.943074 0.941918 0.940749 0.939564 0.938364 0.937146 0.93591 0.934654 0.933377 0.932077 0.930753 0.929405 0.92803 0.926629 0.9252 0.923744 0.92226 0.92075 0.919214 0.917654 0.916072 0.914474 0.912862 0.911244 0.90963 0.908045 0.908045 
1.08965 1.08962 1.08962 1.08961 1.08961 1.08959 1.08958 1.08956 1.08954 1.08952 1.08948 1.08946 1.08941 1.08939 1.08933 1.08931 1.08923 1.08922 1.08913 1.08911 1.08901 1.08899 1.08889 1.08887 1.08876 1.08873 1.08862 1.08858 1.08847 1.08843 1.08832 1.08826 1.08815 1.08808 1.08797 1.08789 1.08777 1.08767 1.08756 1.08744 1.08732 1.08719 1.08705 1.0869 1.08674 1.08657 1.08638 1.08618 1.08597 1.08573 1.08547 1.08518 1.08486 1.08449 1.08408 1.08361 1.08306 1.08241 1.08165 1.08076 1.07971 1.07852 1.0772 1.07579 1.07432 1.07273 1.07087 1.0684 1.06481 1.05961 1.05252 1.0438 1.03429 1.02512 1.01723 1.01111 1.00677 1.00392 1.00217 1.00114 1.00058 1.00028 1.00013 1.00006 1.00002 1.00001 1 1 1 1 1 1 1 1 1 1 1 1 1 1 1 1 1 1 1 1 1 1 1 1 1 1 1 1 1 1 1 1 1 1 1 1 1 1 1 1 1 1 1 1 1 1 1 1 1 1 1 1 1 1 1 1 1 1 1 1 1 1 1 1 1 1 1 1 1 1 1 1 1 1 1 1 1 1 1 1 1 1 1 1 1 1 0.999999 0.999998 0.999996 0.99999 0.99998 0.999961 0.999926 0.999865 0.999764 0.999606 0.999366 0.99902 0.998541 0.997908 0.997101 0.996116 0.994953 0.993629 0.992167 0.990599 0.988957 0.987277 0.985588 0.983917 0.982282 0.980696 0.979167 0.977696 0.976282 0.97492 0.973606 0.972333 0.971095 0.969886 0.968703 0.96754 0.966394 0.965263 0.964144 0.963035 0.961935 0.960841 0.959753 0.958669 0.957588 0.956509 0.955431 0.954352 0.953272 0.952189 0.951102 0.950012 0.948916 0.947813 0.946703 0.945584 0.944456 0.943318 0.942168 0.941005 0.939828 0.938637 0.937429 0.936204 0.934961 0.933698 0.932414 0.931109 0.929781 0.92843 0.927054 0.925654 0.924229 0.922779 0.921306 0.919809 0.918291 0.916754 0.9152 0.913634 0.912061 0.91049 0.908942 0.908942 
1.08955 1.08951 1.08951 1.08951 1.0895 1.08949 1.08948 1.08946 1.08944 1.08942 1.08938 1.08936 1.08932 1.0893 1.08924 1.08922 1.08914 1.08913 1.08904 1.08902 1.08893 1.08891 1.08881 1.08879 1.08868 1.08865 1.08854 1.0885 1.08839 1.08835 1.08824 1.08818 1.08807 1.088 1.08789 1.0878 1.08769 1.08759 1.08747 1.08735 1.08722 1.08709 1.08694 1.08679 1.08663 1.08645 1.08626 1.08605 1.08583 1.08558 1.08531 1.08501 1.08468 1.0843 1.08388 1.08339 1.08282 1.08216 1.08138 1.08047 1.07942 1.07825 1.07698 1.07566 1.07431 1.0729 1.07124 1.06898 1.06561 1.06056 1.05354 1.04479 1.03515 1.02578 1.01769 1.01141 1.00695 1.00402 1.00222 1.00117 1.00059 1.00028 1.00013 1.00006 1.00002 1.00001 1 1 1 1 1 1 1 1 1 1 1 1 1 1 1 1 1 1 1 1 1 1 1 1 1 1 1 1 1 1 1 1 1 1 1 1 1 1 1 1 1 1 1 1 1 1 1 1 1 1 1 1 1 1 1 1 1 1 1 1 1 1 1 1 1 1 1 1 1 1 1 1 1 1 1 1 1 1 1 1 1 1 1 1 1 1 0.999999 0.999998 0.999996 0.999992 0.999983 0.999965 0.999934 0.999878 0.999786 0.99964 0.999417 0.999092 0.99864 0.998036 0.997263 0.996312 0.995182 0.993888 0.992451 0.990902 0.989273 0.987601 0.985914 0.984242 0.982602 0.98101 0.979473 0.977994 0.976571 0.975202 0.97388 0.972601 0.971357 0.970143 0.968955 0.967789 0.96664 0.965506 0.964384 0.963274 0.962171 0.961076 0.959987 0.958903 0.957821 0.956742 0.955663 0.954585 0.953505 0.952423 0.951339 0.95025 0.949156 0.948056 0.946949 0.945834 0.944711 0.943577 0.942433 0.941276 0.940107 0.938924 0.937726 0.936512 0.935281 0.934032 0.932763 0.931475 0.930166 0.928836 0.927484 0.926109 0.924712 0.923293 0.921852 0.92039 0.918909 0.91741 0.915896 0.914369 0.912834 0.9113 0.909784 0.909784 