# vtk DataFile Version 3.0
LBM simulation at step 50
ASCII
DATASET STRUCTURED_POINTS
DIMENSIONS 256 256 1
ORIGIN 0 0 0
SPACING 1 1 1
POINT_DATA 65536
SCALARS density float
LOOKUP_TABLE default
0.736358 1.08059 1.12731 1.08565 1.07776 1.08666 1.08842 1.08648 1.08569 1.08563 1.08535 1.08492 1.08452 1.08415 1.08374 1.08331 1.08282 1.08229 1.08169 1.08107 1.08042 1.07965 1.07853 1.07656 1.07307 1.06735 1.05898 1.04826 1.03633 1.02487 1.0154 1.00861 1.00436 1.002 1.00083 1.00031 1.00011 1.00003 1.00001 1 1 1 1 1 1 1 1 1 1 1 1 1 1 1 1 1 1 1 1 1 1 1 1 1 1 1 1 1 1 1 1 1 1 1 1 1 1 1 1 1 1 1 1 1 1 1 1 1 1 1 1 1 1 1 1 1 1 1 1 1 1 1 1 1 1 1 1 1 1 1 1 1 1 1 1 1 1 1 1 1 1 1 1 1 1 1 1 1 1 1 1 1 1 1 1 1 1 1 1 1 1 1 1 1 1 1 1 1 1 1 1 1 1 1 1 1 1 1 1 1 1 1 1 1 1 1 1 1 1 1 1 1 1 1 1 1 1 1 1 1 1 1 1 1 1 1 1 1 1 1 1 1 1 1 1 1 1 1 1 1 1 1 1 1 1 1 1 1 1 1 1 1 1 1 1 1 1 0.999999 0.999995 0.999984 0.999953 0.999875 0.9997 0.999343 0.998682 0.997569 0.995861 0.993464 0.990373 0.986688 0.982602 0.978355 0.974176 0.970237 0.966624 0.963341 0.960328 0.957497 0.954758 0.952038 0.949289 0.946481 0.943595 0.940612 0.937507 0.934256 0.930805 0.927033 0.922875 0.918465 0.913274 0.905141 0.895329 0.89079 0.866952 0.704531 
1.12347 1.05702 1.0524 1.08758 1.09116 1.08582 1.08497 1.08602 1.08596 1.08543 1.085 1.08471 1.08433 1.08394 1.08351 1.08306 1.08256 1.08202 1.08142 1.08077 1.07998 1.07895 1.07743 1.07511 1.07156 1.06633 1.059 1.04952 1.03853 1.02738 1.01761 1.01022 1.00535 1.00254 1.00109 1.00043 1.00015 1.00005 1.00001 1 1 1 1 1 1 1 1 1 1 1 1 1 1 1 1 1 1 1 1 1 1 1 1 1 1 1 1 1 1 1 1 1 1 1 1 1 1 1 1 1 1 1 1 1 1 1 1 1 1 1 1 1 1 1 1 1 1 1 1 1 1 1 1 1 1 1 1 1 1 1 1 1 1 1 1 1 1 1 1 1 1 1 1 1 1 1 1 1 1 1 1 1 1 1 1 1 1 1 1 1 1 1 1 1 1 1 1 1 1 1 1 1 1 1 1 1 1 1 1 1 1 1 1 1 1 1 1 1 1 1 1 1 1 1 1 1 1 1 1 1 1 1 1 1 1 1 1 1 1 1 1 1 1 1 1 1 1 1 1 1 1 1 1 1 1 1 1 1 1 1 1 1 1 1 1 1 0.999999 0.999998 0.999993 0.999978 0.999938 0.999842 0.999631 0.999215 0.998467 0.997246 0.995428 0.992947 0.989825 0.986179 0.982195 0.978087 0.97405 0.970222 0.966672 0.963402 0.960365 0.957491 0.954705 0.951944 0.949162 0.946326 0.943412 0.9404 0.937258 0.93394 0.930408 0.92663 0.92242 0.917334 0.911592 0.906181 0.89738 0.873086 0.848371 0.848371 
1.13228 1.06089 1.06983 1.0895 1.08666 1.08427 1.08535 1.08591 1.08544 1.08505 1.08475 1.08446 1.08405 1.08367 1.08322 1.08277 1.08224 1.08168 1.08103 1.0803 1.07938 1.07817 1.07646 1.07404 1.07065 1.06595 1.0595 1.05097 1.04063 1.02961 1.01949 1.01155 1.00616 1.00297 1.0013 1.00051 1.00018 1.00006 1.00002 1 1 1 1 1 1 1 1 1 1 1 1 1 1 1 1 1 1 1 1 1 1 1 1 1 1 1 1 1 1 1 1 1 1 1 1 1 1 1 1 1 1 1 1 1 1 1 1 1 1 1 1 1 1 1 1 1 1 1 1 1 1 1 1 1 1 1 1 1 1 1 1 1 1 1 1 1 1 1 1 1 1 1 1 1 1 1 1 1 1 1 1 1 1 1 1 1 1 1 1 1 1 1 1 1 1 1 1 1 1 1 1 1 1 1 1 1 1 1 1 1 1 1 1 1 1 1 1 1 1 1 1 1 1 1 1 1 1 1 1 1 1 1 1 1 1 1 1 1 1 1 1 1 1 1 1 1 1 1 1 1 1 1 1 1 1 1 1 1 1 1 1 1 1 1 1 1 0.999999 0.999998 0.999992 0.999976 0.999931 0.999826 0.999597 0.999149 0.998353 0.997072 0.995188 0.992652 0.989504 0.985872 0.981943 0.977922 0.97398 0.970237 0.966746 0.963505 0.96047 0.95758 0.954771 0.951986 0.949184 0.946332 0.943406 0.940382 0.937236 0.933925 0.930377 0.926557 0.922494 0.91783 0.911831 0.905448 0.900643 0.889895 0.871876 0.871876 
1.04949 1.08499 1.09777 1.08041 1.08047 1.08593 1.08613 1.08495 1.08473 1.0848 1.08448 1.08413 1.08371 1.08337 1.08289 1.08244 1.08188 1.0813 1.0806 1.07981 1.07881 1.07751 1.0757 1.07325 1.06999 1.06569 1.05993 1.05224 1.04254 1.0317 1.02131 1.01286 1.00697 1.0034 1.0015 1.0006 1.00022 1.00007 1.00002 1.00001 1 1 1 1 1 1 1 1 1 1 1 1 1 1 1 1 1 1 1 1 1 1 1 1 1 1 1 1 1 1 1 1 1 1 1 1 1 1 1 1 1 1 1 1 1 1 1 1 1 1 1 1 1 1 1 1 1 1 1 1 1 1 1 1 1 1 1 1 1 1 1 1 1 1 1 1 1 1 1 1 1 1 1 1 1 1 1 1 1 1 1 1 1 1 1 1 1 1 1 1 1 1 1 1 1 1 1 1 1 1 1 1 1 1 1 1 1 1 1 1 1 1 1 1 1 1 1 1 1 1 1 1 1 1 1 1 1 1 1 1 1 1 1 1 1 1 1 1 1 1 1 1 1 1 1 1 1 1 1 1 1 1 1 1 1 1 1 1 1 1 1 1 1 1 1 1 0.999999 0.999998 0.999992 0.999974 0.999928 0.999817 0.999579 0.999114 0.998295 0.996985 0.995075 0.992523 0.989379 0.985777 0.9819 0.977942 0.974064 0.970371 0.966911 0.963681 0.960644 0.957744 0.954924 0.95213 0.949322 0.946469 0.943548 0.940533 0.937396 0.93412 0.930664 0.926892 0.922732 0.91847 0.913861 0.906976 0.898735 0.894258 0.8888 0.8888 
1.08869 1.08826 1.08076 1.08093 1.08606 1.08523 1.08409 1.0845 1.08469 1.08442 1.08401 1.08377 1.08339 1.08303 1.08254 1.08209 1.08151 1.08092 1.08018 1.07934 1.07825 1.07683 1.07491 1.07243 1.06933 1.06548 1.06046 1.05358 1.04448 1.03379 1.02311 1.01414 1.00775 1.00382 1.00169 1.00068 1.00025 1.00008 1.00002 1.00001 1 1 1 1 1 1 1 1 1 1 1 1 1 1 1 1 1 1 1 1 1 1 1 1 1 1 1 1 1 1 1 1 1 1 1 1 1 1 1 1 1 1 1 1 1 1 1 1 1 1 1 1 1 1 1 1 1 1 1 1 1 1 1 1 1 1 1 1 1 1 1 1 1 1 1 1 1 1 1 1 1 1 1 1 1 1 1 1 1 1 1 1 1 1 1 1 1 1 1 1 1 1 1 1 1 1 1 1 1 1 1 1 1 1 1 1 1 1 1 1 1 1 1 1 1 1 1 1 1 1 1 1 1 1 1 1 1 1 1 1 1 1 1 1 1 1 1 1 1 1 1 1 1 1 1 1 1 1 1 1 1 1 1 1 1 1 1 1 1 1 1 1 1 1 1 1 0.999999 0.999998 0.999992 0.999974 0.999928 0.999818 0.999579 0.999114 0.998295 0.996984 0.995077 0.992535 0.989413 0.985847 0.982019 0.978117 0.97429 0.970636 0.967197 0.96397 0.960924 0.95801 0.955176 0.952374 0.949565 0.946718 0.943811 0.940822 0.937722 0.934476 0.931081 0.927519 0.92359 0.919186 0.914869 0.910417 0.903985 0.897895 0.893512 0.893512 
1.09043 1.08345 1.08154 1.08615 1.08473 1.08314 1.08414 1.08458 1.08413 1.08388 1.08365 1.08344 1.08301 1.08266 1.08217 1.08171 1.08111 1.0805 1.07972 1.07882 1.07764 1.07611 1.07411 1.07165 1.06877 1.0654 1.06109 1.05498 1.04644 1.03587 1.02489 1.0154 1.00851 1.00421 1.00188 1.00076 1.00028 1.00009 1.00003 1.00001 1 1 1 1 1 1 1 1 1 1 1 1 1 1 1 1 1 1 1 1 1 1 1 1 1 1 1 1 1 1 1 1 1 1 1 1 1 1 1 1 1 1 1 1 1 1 1 1 1 1 1 1 1 1 1 1 1 1 1 1 1 1 1 1 1 1 1 1 1 1 1 1 1 1 1 1 1 1 1 1 1 1 1 1 1 1 1 1 1 1 1 1 1 1 1 1 1 1 1 1 1 1 1 1 1 1 1 1 1 1 1 1 1 1 1 1 1 1 1 1 1 1 1 1 1 1 1 1 1 1 1 1 1 1 1 1 1 1 1 1 1 1 1 1 1 1 1 1 1 1 1 1 1 1 1 1 1 1 1 1 1 1 1 1 1 1 1 1 1 1 1 1 1 1 1 1 0.999999 0.999998 0.999992 0.999976 0.999932 0.999826 0.999596 0.999144 0.998345 0.997061 0.995187 0.992683 0.989604 0.986082 0.9823 0.97844 0.97465 0.971022 0.967594 0.964366 0.961309 0.95838 0.955533 0.952724 0.949916 0.947078 0.944186 0.941222 0.938169 0.934993 0.931644 0.928142 0.924532 0.920537 0.915952 0.911579 0.907208 0.902099 0.897502 0.897502 
1.08167 1.08386 1.08533 1.08416 1.08289 1.08402 1.08425 1.08376 1.08357 1.08359 1.08329 1.08302 1.0826 1.08228 1.08177 1.0813 1.08068 1.08004 1.07921 1.07824 1.07697 1.07536 1.07333 1.07094 1.06832 1.06546 1.06184 1.05647 1.04843 1.03794 1.02663 1.01662 1.00923 1.00459 1.00205 1.00083 1.0003 1.0001 1.00003 1.00001 1 1 1 1 1 1 1 1 1 1 1 1 1 1 1 1 1 1 1 1 1 1 1 1 1 1 1 1 1 1 1 1 1 1 1 1 1 1 1 1 1 1 1 1 1 1 1 1 1 1 1 1 1 1 1 1 1 1 1 1 1 1 1 1 1 1 1 1 1 1 1 1 1 1 1 1 1 1 1 1 1 1 1 1 1 1 1 1 1 1 1 1 1 1 1 1 1 1 1 1 1 1 1 1 1 1 1 1 1 1 1 1 1 1 1 1 1 1 1 1 1 1 1 1 1 1 1 1 1 1 1 1 1 1 1 1 1 1 1 1 1 1 1 1 1 1 1 1 1 1 1 1 1 1 1 1 1 1 1 1 1 1 1 1 1 1 1 1 1 1 1 1 1 1 1 1 1 0.999998 0.999993 0.999978 0.999938 0.99984 0.999626 0.9992 0.998439 0.997208 0.995396 0.992959 0.989943 0.986477 0.98274 0.978915 0.975148 0.971531 0.968105 0.96487 0.961799 0.958855 0.955995 0.953178 0.95037 0.947542 0.944671 0.941734 0.938713 0.935602 0.932369 0.928944 0.925367 0.921731 0.917757 0.913418 0.909201 0.904801 0.900459 0.900459 
1.0839 1.08389 1.0838 1.08312 1.08371 1.08391 1.08335 1.08335 1.08335 1.08318 1.08281 1.0826 1.0822 1.08186 1.08133 1.08085 1.08021 1.07953 1.07866 1.07762 1.07627 1.0746 1.07256 1.0703 1.068 1.06567 1.06274 1.05805 1.05045 1.04 1.02834 1.0178 1.00992 1.00494 1.00221 1.00089 1.00032 1.00011 1.00003 1.00001 1 1 1 1 1 1 1 1 1 1 1 1 1 1 1 1 1 1 1 1 1 1 1 1 1 1 1 1 1 1 1 1 1 1 1 1 1 1 1 1 1 1 1 1 1 1 1 1 1 1 1 1 1 1 1 1 1 1 1 1 1 1 1 1 1 1 1 1 1 1 1 1 1 1 1 1 1 1 1 1 1 1 1 1 1 1 1 1 1 1 1 1 1 1 1 1 1 1 1 1 1 1 1 1 1 1 1 1 1 1 1 1 1 1 1 1 1 1 1 1 1 1 1 1 1 1 1 1 1 1 1 1 1 1 1 1 1 1 1 1 1 1 1 1 1 1 1 1 1 1 1 1 1 1 1 1 1 1 1 1 1 1 1 1 1 1 1 1 1 1 1 1 1 1 1 1 1 0.999998 0.999994 0.999982 0.999946 0.999859 0.999665 0.999276 0.998571 0.997414 0.995692 0.99335 0.990422 0.987029 0.983343 0.979547 0.975792 0.972175 0.968739 0.965488 0.962399 0.959436 0.956561 0.953736 0.950928 0.948109 0.945256 0.942352 0.939372 0.9363 0.933141 0.929869 0.926398 0.922793 0.919132 0.91522 0.911145 0.907083 0.903042 0.903042 
1.08426 1.08329 1.08308 1.08334 1.08347 1.08309 1.08305 1.08314 1.08287 1.08268 1.0824 1.08219 1.08175 1.0814 1.08087 1.08038 1.0797 1.07899 1.07806 1.07695 1.07553 1.07382 1.07182 1.06975 1.06782 1.06605 1.06379 1.05973 1.05252 1.04204 1.02999 1.01891 1.01056 1.00526 1.00235 1.00095 1.00034 1.00011 1.00003 1.00001 1 1 1 1 1 1 1 1 1 1 1 1 1 1 1 1 1 1 1 1 1 1 1 1 1 1 1 1 1 1 1 1 1 1 1 1 1 1 1 1 1 1 1 1 1 1 1 1 1 1 1 1 1 1 1 1 1 1 1 1 1 1 1 1 1 1 1 1 1 1 1 1 1 1 1 1 1 1 1 1 1 1 1 1 1 1 1 1 1 1 1 1 1 1 1 1 1 1 1 1 1 1 1 1 1 1 1 1 1 1 1 1 1 1 1 1 1 1 1 1 1 1 1 1 1 1 1 1 1 1 1 1 1 1 1 1 1 1 1 1 1 1 1 1 1 1 1 1 1 1 1 1 1 1 1 1 1 1 1 1 1 1 1 1 1 1 1 1 1 1 1 1 1 1 1 1 1 0.999999 0.999995 0.999985 0.999955 0.999881 0.999711 0.999366 0.998728 0.997666 0.996059 0.993842 0.991031 0.987731 0.984108 0.980343 0.976593 0.972964 0.969507 0.966231 0.963117 0.960132 0.957239 0.954403 0.951593 0.948781 0.945944 0.943065 0.940129 0.937114 0.934002 0.930808 0.927508 0.92404 0.920469 0.916805 0.912979 0.909101 0.905268 0.905268 
1.0831 1.08296 1.08301 1.08299 1.0828 1.08277 1.08279 1.08264 1.08238 1.08227 1.08196 1.08171 1.08127 1.08092 1.08037 1.07986 1.07915 1.0784 1.07741 1.07624 1.07476 1.07304 1.07114 1.06932 1.06782 1.06662 1.06502 1.06152 1.05461 1.04404 1.03157 1.01996 1.01115 1.00555 1.00247 1.00099 1.00036 1.00012 1.00003 1.00001 1 1 1 1 1 1 1 1 1 1 1 1 1 1 1 1 1 1 1 1 1 1 1 1 1 1 1 1 1 1 1 1 1 1 1 1 1 1 1 1 1 1 1 1 1 1 1 1 1 1 1 1 1 1 1 1 1 1 1 1 1 1 1 1 1 1 1 1 1 1 1 1 1 1 1 1 1 1 1 1 1 1 1 1 1 1 1 1 1 1 1 1 1 1 1 1 1 1 1 1 1 1 1 1 1 1 1 1 1 1 1 1 1 1 1 1 1 1 1 1 1 1 1 1 1 1 1 1 1 1 1 1 1 1 1 1 1 1 1 1 1 1 1 1 1 1 1 1 1 1 1 1 1 1 1 1 1 1 1 1 1 1 1 1 1 1 1 1 1 1 1 1 1 1 1 1 1 0.999999 0.999997 0.999988 0.999964 0.999903 0.99976 0.999462 0.998902 0.99795 0.996481 0.994415 0.991751 0.988572 0.985031 0.981306 0.97756 0.973912 0.970423 0.967112 0.963965 0.960951 0.958035 0.955185 0.952369 0.949561 0.946739 0.943883 0.940978 0.938015 0.934972 0.931835 0.92862 0.925303 0.921856 0.918324 0.914701 0.910998 0.907312 0.907312 
1.08283 1.08258 1.08255 1.08247 1.08242 1.08244 1.08228 1.08215 1.08196 1.08181 1.08145 1.08121 1.08077 1.0804 1.07983 1.0793 1.07856 1.07776 1.0767 1.07547 1.07396 1.07228 1.07055 1.06905 1.06802 1.06742 1.06643 1.06342 1.05672 1.04599 1.03307 1.02092 1.01168 1.0058 1.00258 1.00103 1.00037 1.00012 1.00004 1.00001 1 1 1 1 1 1 1 1 1 1 1 1 1 1 1 1 1 1 1 1 1 1 1 1 1 1 1 1 1 1 1 1 1 1 1 1 1 1 1 1 1 1 1 1 1 1 1 1 1 1 1 1 1 1 1 1 1 1 1 1 1 1 1 1 1 1 1 1 1 1 1 1 1 1 1 1 1 1 1 1 1 1 1 1 1 1 1 1 1 1 1 1 1 1 1 1 1 1 1 1 1 1 1 1 1 1 1 1 1 1 1 1 1 1 1 1 1 1 1 1 1 1 1 1 1 1 1 1 1 1 1 1 1 1 1 1 1 1 1 1 1 1 1 1 1 1 1 1 1 1 1 1 1 1 1 1 1 1 1 1 1 1 1 1 1 1 1 1 1 1 1 1 1 1 1 1 1 0.999999 0.999997 0.999991 0.999973 0.999924 0.999808 0.99956 0.999082 0.99825 0.996937 0.995049 0.992562 0.989536 0.986104 0.982437 0.978704 0.975033 0.971505 0.968148 0.964957 0.961906 0.958962 0.956092 0.953265 0.950457 0.947644 0.94481 0.941934 0.939008 0.936024 0.932961 0.929814 0.926591 0.923272 0.919855 0.916364 0.912806 0.909243 0.909243 
1.08249 1.08208 1.08204 1.08202 1.082 1.08193 1.08177 1.08169 1.08146 1.08127 1.08093 1.08068 1.08022 1.07984 1.07925 1.07869 1.07791 1.07705 1.07593 1.07465 1.07315 1.07158 1.07008 1.06898 1.06848 1.06846 1.06802 1.06542 1.05882 1.04786 1.03446 1.02179 1.01214 1.00601 1.00266 1.00106 1.00038 1.00012 1.00004 1.00001 1 1 1 1 1 1 1 1 1 1 1 1 1 1 1 1 1 1 1 1 1 1 1 1 1 1 1 1 1 1 1 1 1 1 1 1 1 1 1 1 1 1 1 1 1 1 1 1 1 1 1 1 1 1 1 1 1 1 1 1 1 1 1 1 1 1 1 1 1 1 1 1 1 1 1 1 1 1 1 1 1 1 1 1 1 1 1 1 1 1 1 1 1 1 1 1 1 1 1 1 1 1 1 1 1 1 1 1 1 1 1 1 1 1 1 1 1 1 1 1 1 1 1 1 1 1 1 1 1 1 1 1 1 1 1 1 1 1 1 1 1 1 1 1 1 1 1 1 1 1 1 1 1 1 1 1 1 1 1 1 1 1 1 1 1 1 1 1 1 1 1 1 1 1 1 1 1 1 0.999998 0.999994 0.99998 0.999943 0.999852 0.999652 0.999257 0.99855 0.997406 0.995718 0.99344 0.990602 0.987313 0.983733 0.980028 0.976342 0.97277 0.969358 0.966112 0.963014 0.960032 0.957135 0.954293 0.951478 0.948669 0.945849 0.943001 0.94011 0.937168 0.934167 0.931092 0.927943 0.924719 0.921412 0.918028 0.914585 0.911125 0.911125 
1.08193 1.08154 1.08153 1.08151 1.08146 1.08139 1.08126 1.08115 1.0809 1.08072 1.08037 1.0801 1.07963 1.07923 1.07862 1.07802 1.07718 1.07627 1.07511 1.07382 1.07238 1.07098 1.06981 1.06916 1.06921 1.06975 1.06979 1.06748 1.06089 1.04963 1.03573 1.02255 1.01253 1.00618 1.00273 1.00109 1.00039 1.00013 1.00004 1.00001 1 1 1 1 1 1 1 1 1 1 1 1 1 1 1 1 1 1 1 1 1 1 1 1 1 1 1 1 1 1 1 1 1 1 1 1 1 1 1 1 1 1 1 1 1 1 1 1 1 1 1 1 1 1 1 1 1 1 1 1 1 1 1 1 1 1 1 1 1 1 1 1 1 1 1 1 1 1 1 1 1 1 1 1 1 1 1 1 1 1 1 1 1 1 1 1 1 1 1 1 1 1 1 1 1 1 1 1 1 1 1 1 1 1 1 1 1 1 1 1 1 1 1 1 1 1 1 1 1 1 1 1 1 1 1 1 1 1 1 1 1 1 1 1 1 1 1 1 1 1 1 1 1 1 1 1 1 1 1 1 1 1 1 1 1 1 1 1 1 1 1 1 1 1 1 1 1 1 0.999999 0.999996 0.999986 0.999959 0.999891 0.999736 0.99942 0.998838 0.997868 0.996396 0.994353 0.991739 0.988635 0.985179 0.981533 0.977848 0.974237 0.970764 0.967453 0.964296 0.961266 0.958333 0.955466 0.952638 0.949828 0.947015 0.944186 0.941326 0.938422 0.935469 0.932457 0.929377 0.92623 0.923012 0.919723 0.916376 0.913004 0.913004 
1.08136 1.08093 1.08092 1.08091 1.08087 1.08081 1.08067 1.08055 1.0803 1.08012 1.07975 1.07947 1.07899 1.07857 1.07792 1.07728 1.07639 1.07543 1.07424 1.07299 1.07169 1.07056 1.06979 1.06965 1.07025 1.07129 1.07172 1.06958 1.0629 1.05126 1.03686 1.0232 1.01285 1.00632 1.00278 1.00111 1.0004 1.00013 1.00004 1.00001 1 1 1 1 1 1 1 1 1 1 1 1 1 1 1 1 1 1 1 1 1 1 1 1 1 1 1 1 1 1 1 1 1 1 1 1 1 1 1 1 1 1 1 1 1 1 1 1 1 1 1 1 1 1 1 1 1 1 1 1 1 1 1 1 1 1 1 1 1 1 1 1 1 1 1 1 1 1 1 1 1 1 1 1 1 1 1 1 1 1 1 1 1 1 1 1 1 1 1 1 1 1 1 1 1 1 1 1 1 1 1 1 1 1 1 1 1 1 1 1 1 1 1 1 1 1 1 1 1 1 1 1 1 1 1 1 1 1 1 1 1 1 1 1 1 1 1 1 1 1 1 1 1 1 1 1 1 1 1 1 1 1 1 1 1 1 1 1 1 1 1 1 1 1 1 1 1 1 0.999999 0.999997 0.999991 0.999972 0.999923 0.999808 0.999564 0.999102 0.998305 0.997056 0.995269 0.992914 0.990038 0.986753 0.983206 0.979552 0.975918 0.972389 0.969007 0.965778 0.962687 0.959706 0.956805 0.953956 0.951136 0.948325 0.945507 0.942669 0.939798 0.936885 0.933924 0.930906 0.927827 0.924684 0.921478 0.918213 0.914918 0.914918 
1.0807 1.08021 1.08022 1.08023 1.08021 1.08015 1.08001 1.07989 1.07964 1.07945 1.07908 1.07879 1.07828 1.07783 1.07714 1.07645 1.07552 1.07454 1.07338 1.07224 1.07116 1.07039 1.07009 1.07048 1.07159 1.07306 1.07376 1.07167 1.06479 1.05274 1.03783 1.02374 1.01311 1.00642 1.00282 1.00112 1.0004 1.00013 1.00004 1.00001 1 1 1 1 1 1 1 1 1 1 1 1 1 1 1 1 1 1 1 1 1 1 1 1 1 1 1 1 1 1 1 1 1 1 1 1 1 1 1 1 1 1 1 1 1 1 1 1 1 1 1 1 1 1 1 1 1 1 1 1 1 1 1 1 1 1 1 1 1 1 1 1 1 1 1 1 1 1 1 1 1 1 1 1 1 1 1 1 1 1 1 1 1 1 1 1 1 1 1 1 1 1 1 1 1 1 1 1 1 1 1 1 1 1 1 1 1 1 1 1 1 1 1 1 1 1 1 1 1 1 1 1 1 1 1 1 1 1 1 1 1 1 1 1 1 1 1 1 1 1 1 1 1 1 1 1 1 1 1 1 1 1 1 1 1 1 1 1 1 1 1 1 1 1 1 1 1 1 1 0.999998 0.999994 0.999982 0.999948 0.999866 0.999686 0.999332 0.998699 0.997673 0.996154 0.994087 0.991482 0.988419 0.985024 0.981445 0.977819 0.974249 0.970798 0.967492 0.964327 0.961285 0.958337 0.955456 0.952617 0.949799 0.946985 0.94416 0.941314 0.938436 0.935517 0.932551 0.929532 0.926456 0.923321 0.920132 0.916907 0.916907 
1.07991 1.07938 1.07942 1.07946 1.07946 1.07941 1.07927 1.07915 1.0789 1.07871 1.07833 1.07802 1.07749 1.07701 1.07628 1.07556 1.07461 1.07365 1.07259 1.07165 1.07089 1.07055 1.07075 1.07166 1.07322 1.07502 1.07585 1.0737 1.06652 1.05403 1.03864 1.02418 1.0133 1.0065 1.00285 1.00113 1.0004 1.00013 1.00004 1.00001 1 1 1 1 1 1 1 1 1 1 1 1 1 1 1 1 1 1 1 1 1 1 1 1 1 1 1 1 1 1 1 1 1 1 1 1 1 1 1 1 1 1 1 1 1 1 1 1 1 1 1 1 1 1 1 1 1 1 1 1 1 1 1 1 1 1 1 1 1 1 1 1 1 1 1 1 1 1 1 1 1 1 1 1 1 1 1 1 1 1 1 1 1 1 1 1 1 1 1 1 1 1 1 1 1 1 1 1 1 1 1 1 1 1 1 1 1 1 1 1 1 1 1 1 1 1 1 1 1 1 1 1 1 1 1 1 1 1 1 1 1 1 1 1 1 1 1 1 1 1 1 1 1 1 1 1 1 1 1 1 1 1 1 1 1 1 1 1 1 1 1 1 1 1 1 1 1 1 1 0.999999 0.999997 0.999989 0.999967 0.999911 0.999784 0.999524 0.99904 0.998227 0.996978 0.995216 0.99292 0.99013 0.986947 0.983501 0.97993 0.976351 0.972847 0.969465 0.96622 0.963104 0.960096 0.957169 0.9543 0.951466 0.948647 0.94583 0.943 0.940148 0.937265 0.934343 0.931376 0.92836 0.925291 0.922171 0.919014 0.919014 
1.07902 1.07843 1.07852 1.07859 1.07861 1.07857 1.07845 1.07834 1.07809 1.0779 1.07751 1.07718 1.07662 1.07611 1.07536 1.07462 1.0737 1.07284 1.07196 1.07132 1.07096 1.0711 1.07182 1.07319 1.07511 1.0771 1.07794 1.0756 1.06807 1.05512 1.0393 1.02451 1.01345 1.00656 1.00287 1.00113 1.0004 1.00013 1.00004 1.00001 1 1 1 1 1 1 1 1 1 1 1 1 1 1 1 1 1 1 1 1 1 1 1 1 1 1 1 1 1 1 1 1 1 1 1 1 1 1 1 1 1 1 1 1 1 1 1 1 1 1 1 1 1 1 1 1 1 1 1 1 1 1 1 1 1 1 1 1 1 1 1 1 1 1 1 1 1 1 1 1 1 1 1 1 1 1 1 1 1 1 1 1 1 1 1 1 1 1 1 1 1 1 1 1 1 1 1 1 1 1 1 1 1 1 1 1 1 1 1 1 1 1 1 1 1 1 1 1 1 1 1 1 1 1 1 1 1 1 1 1 1 1 1 1 1 1 1 1 1 1 1 1 1 1 1 1 1 1 1 1 1 1 1 1 1 1 1 1 1 1 1 1 1 1 1 1 1 1 1 1 0.999998 0.999994 0.99998 0.999944 0.999859 0.999676 0.999322 0.998703 0.997713 0.996262 0.9943 0.991832 0.988922 0.985676 0.982224 0.978686 0.975163 0.971723 0.9684 0.965203 0.962123 0.959138 0.956225 0.953363 0.95053 0.947711 0.944891 0.942059 0.939205 0.936321 0.933401 0.930441 0.927434 0.924382 0.921295 0.921295 
1.07801 1.07734 1.0775 1.07763 1.07767 1.07765 1.07754 1.07745 1.0772 1.077 1.0766 1.07625 1.07567 1.07515 1.0744 1.07371 1.07289 1.07221 1.07162 1.07135 1.07146 1.07209 1.07328 1.07503 1.07718 1.07923 1.07995 1.07733 1.0694 1.05601 1.03981 1.02475 1.01355 1.00659 1.00288 1.00113 1.0004 1.00013 1.00004 1.00001 1 1 1 1 1 1 1 1 1 1 1 1 1 1 1 1 1 1 1 1 1 1 1 1 1 1 1 1 1 1 1 1 1 1 1 1 1 1 1 1 1 1 1 1 1 1 1 1 1 1 1 1 1 1 1 1 1 1 1 1 1 1 1 1 1 1 1 1 1 1 1 1 1 1 1 1 1 1 1 1 1 1 1 1 1 1 1 1 1 1 1 1 1 1 1 1 1 1 1 1 1 1 1 1 1 1 1 1 1 1 1 1 1 1 1 1 1 1 1 1 1 1 1 1 1 1 1 1 1 1 1 1 1 1 1 1 1 1 1 1 1 1 1 1 1 1 1 1 1 1 1 1 1 1 1 1 1 1 1 1 1 1 1 1 1 1 1 1 1 1 1 1 1 1 1 1 1 1 1 1 0.999999 0.999997 0.999989 0.999967 0.999912 0.99979 0.999543 0.999092 0.99834 0.997191 0.995574 0.993462 0.990881 0.987907 0.984647 0.98122 0.977733 0.974272 0.970892 0.96762 0.964462 0.961408 0.95844 0.955538 0.952681 0.949851 0.947033 0.944214 0.941384 0.938536 0.93566 0.932753 0.92981 0.92683 0.923819 0.923819 
1.07686 1.07614 1.07638 1.07656 1.07663 1.07664 1.07655 1.07647 1.07623 1.07602 1.07562 1.07527 1.07469 1.07419 1.0735 1.07292 1.0723 1.0719 1.07167 1.07185 1.07243 1.07353 1.0751 1.0771 1.07935 1.08132 1.08181 1.07884 1.0705 1.05671 1.04018 1.02492 1.01361 1.00661 1.00289 1.00114 1.0004 1.00013 1.00004 1.00001 1 1 1 1 1 1 1 1 1 1 1 1 1 1 1 1 1 1 1 1 1 1 1 1 1 1 1 1 1 1 1 1 1 1 1 1 1 1 1 1 1 1 1 1 1 1 1 1 1 1 1 1 1 1 1 1 1 1 1 1 1 1 1 1 1 1 1 1 1 1 1 1 1 1 1 1 1 1 1 1 1 1 1 1 1 1 1 1 1 1 1 1 1 1 1 1 1 1 1 1 1 1 1 1 1 1 1 1 1 1 1 1 1 1 1 1 1 1 1 1 1 1 1 1 1 1 1 1 1 1 1 1 1 1 1 1 1 1 1 1 1 1 1 1 1 1 1 1 1 1 1 1 1 1 1 1 1 1 1 1 1 1 1 1 1 1 1 1 1 1 1 1 1 1 1 1 1 1 1 1 1 0.999998 0.999994 0.999982 0.999949 0.999872 0.999708 0.999395 0.998849 0.997979 0.996701 0.994962 0.992754 0.990116 0.987128 0.983893 0.980516 0.977094 0.973698 0.970377 0.967152 0.964028 0.960998 0.958046 0.955154 0.952304 0.949481 0.946672 0.943863 0.941048 0.938217 0.935367 0.932492 0.929592 0.92667 0.92667 
1.07555 1.07485 1.07519 1.07542 1.07551 1.07556 1.0755 1.07543 1.0752 1.07501 1.07461 1.07429 1.07376 1.07334 1.07279 1.07242 1.07208 1.07204 1.07223 1.07287 1.07388 1.07536 1.07719 1.07931 1.0815 1.08327 1.08345 1.0801 1.07136 1.05722 1.04044 1.02504 1.01365 1.00663 1.00289 1.00114 1.0004 1.00013 1.00004 1.00001 1 1 1 1 1 1 1 1 1 1 1 1 1 1 1 1 1 1 1 1 1 1 1 1 1 1 1 1 1 1 1 1 1 1 1 1 1 1 1 1 1 1 1 1 1 1 1 1 1 1 1 1 1 1 1 1 1 1 1 1 1 1 1 1 1 1 1 1 1 1 1 1 1 1 1 1 1 1 1 1 1 1 1 1 1 1 1 1 1 1 1 1 1 1 1 1 1 1 1 1 1 1 1 1 1 1 1 1 1 1 1 1 1 1 1 1 1 1 1 1 1 1 1 1 1 1 1 1 1 1 1 1 1 1 1 1 1 1 1 1 1 1 1 1 1 1 1 1 1 1 1 1 1 1 1 1 1 1 1 1 1 1 1 1 1 1 1 1 1 1 1 1 1 1 1 1 1 1 1 1 1 0.999999 0.999997 0.99999 0.999972 0.999926 0.999824 0.999618 0.999242 0.998614 0.99765 0.99628 0.994468 0.992217 0.989574 0.986616 0.983439 0.980137 0.976793 0.973471 0.970211 0.967035 0.963949 0.960945 0.958014 0.955138 0.952305 0.9495 0.946712 0.943931 0.941149 0.938361 0.935565 0.932759 0.929947 0.929947 
1.07414 1.07358 1.074 1.07427 1.0744 1.07448 1.07445 1.07441 1.07421 1.07404 1.0737 1.07345 1.07303 1.07277 1.07244 1.07236 1.07236 1.07273 1.07335 1.0744 1.07577 1.07749 1.07943 1.08152 1.08353 1.08501 1.08482 1.08109 1.07201 1.05759 1.04062 1.02511 1.01368 1.00663 1.00289 1.00114 1.0004 1.00013 1.00004 1.00001 1 1 1 1 1 1 1 1 1 1 1 1 1 1 1 1 1 1 1 1 1 1 1 1 1 1 1 1 1 1 1 1 1 1 1 1 1 1 1 1 1 1 1 1 1 1 1 1 1 1 1 1 1 1 1 1 1 1 1 1 1 1 1 1 1 1 1 1 1 1 1 1 1 1 1 1 1 1 1 1 1 1 1 1 1 1 1 1 1 1 1 1 1 1 1 1 1 1 1 1 1 1 1 1 1 1 1 1 1 1 1 1 1 1 1 1 1 1 1 1 1 1 1 1 1 1 1 1 1 1 1 1 1 1 1 1 1 1 1 1 1 1 1 1 1 1 1 1 1 1 1 1 1 1 1 1 1 1 1 1 1 1 1 1 1 1 1 1 1 1 1 1 1 1 1 1 1 1 1 1 1 1 0.999999 0.999995 0.999986 0.99996 0.9999 0.999773 0.999529 0.9991 0.998409 0.997383 0.995963 0.994126 0.991883 0.989282 0.986396 0.983309 0.980106 0.976858 0.973622 0.970436 0.96732 0.964281 0.961317 0.958419 0.955577 0.952778 0.950012 0.94727 0.944544 0.941831 0.939128 0.936436 0.93376 0.93376 
1.0728 1.07253 1.07298 1.07325 1.07341 1.07353 1.07353 1.07353 1.07338 1.07329 1.07304 1.07292 1.07268 1.07265 1.07261 1.07287 1.07326 1.07401 1.07501 1.07637 1.07796 1.07979 1.08169 1.08361 1.08534 1.08647 1.08592 1.08184 1.07247 1.05783 1.04073 1.02515 1.01369 1.00664 1.00289 1.00114 1.0004 1.00013 1.00004 1.00001 1 1 1 1 1 1 1 1 1 1 1 1 1 1 1 1 1 1 1 1 1 1 1 1 1 1 1 1 1 1 1 1 1 1 1 1 1 1 1 1 1 1 1 1 1 1 1 1 1 1 1 1 1 1 1 1 1 1 1 1 1 1 1 1 1 1 1 1 1 1 1 1 1 1 1 1 1 1 1 1 1 1 1 1 1 1 1 1 1 1 1 1 1 1 1 1 1 1 1 1 1 1 1 1 1 1 1 1 1 1 1 1 1 1 1 1 1 1 1 1 1 1 1 1 1 1 1 1 1 1 1 1 1 1 1 1 1 1 1 1 1 1 1 1 1 1 1 1 1 1 1 1 1 1 1 1 1 1 1 1 1 1 1 1 1 1 1 1 1 1 1 1 1 1 1 1 1 1 1 1 1 1 0.999999 0.999998 0.999993 0.99998 0.999947 0.999874 0.999725 0.999449 0.998982 0.998254 0.9972 0.995775 0.993961 0.991775 0.989262 0.986486 0.983523 0.980445 0.977318 0.974191 0.9711 0.968065 0.965096 0.962195 0.959357 0.956575 0.953842 0.951151 0.948496 0.945873 0.943285 0.940733 0.938224 0.938224 
1.07185 1.07196 1.07236 1.07261 1.07278 1.07291 1.07295 1.073 1.07293 1.07295 1.07284 1.07291 1.0729 1.07315 1.07343 1.07403 1.07476 1.07585 1.07711 1.07865 1.08031 1.08209 1.08382 1.08546 1.08686 1.08764 1.08674 1.08237 1.07277 1.05798 1.04079 1.02517 1.0137 1.00664 1.00289 1.00114 1.0004 1.00013 1.00004 1.00001 1 1 1 1 1 1 1 1 1 1 1 1 1 1 1 1 1 1 1 1 1 1 1 1 1 1 1 1 1 1 1 1 1 1 1 1 1 1 1 1 1 1 1 1 1 1 1 1 1 1 1 1 1 1 1 1 1 1 1 1 1 1 1 1 1 1 1 1 1 1 1 1 1 1 1 1 1 1 1 1 1 1 1 1 1 1 1 1 1 1 1 1 1 1 1 1 1 1 1 1 1 1 1 1 1 1 1 1 1 1 1 1 1 1 1 1 1 1 1 1 1 1 1 1 1 1 1 1 1 1 1 1 1 1 1 1 1 1 1 1 1 1 1 1 1 1 1 1 1 1 1 1 1 1 1 1 1 1 1 1 1 1 1 1 1 1 1 1 1 1 1 1 1 1 1 1 1 1 1 1 1 1 1 0.999999 0.999997 0.999991 0.999974 0.999935 0.99985 0.999684 0.999388 0.998903 0.998165 0.997121 0.995732 0.993988 0.991903 0.98952 0.986894 0.984091 0.981173 0.978199 0.975213 0.972249 0.96933 0.966468 0.963668 0.960932 0.958256 0.955638 0.953077 0.950571 0.948125 0.945744 0.943437 0.943437 
1.07164 1.07217 1.07243 1.0726 1.07274 1.07287 1.07294 1.07306 1.07308 1.07323 1.0733 1.07358 1.07382 1.07435 1.07492 1.07581 1.07681 1.07809 1.07948 1.08105 1.08264 1.08423 1.08569 1.08701 1.08806 1.0885 1.08732 1.08272 1.07296 1.05807 1.04082 1.02518 1.0137 1.00664 1.00289 1.00114 1.0004 1.00013 1.00004 1.00001 1 1 1 1 1 1 1 1 1 1 1 1 1 1 1 1 1 1 1 1 1 1 1 1 1 1 1 1 1 1 1 1 1 1 1 1 1 1 1 1 1 1 1 1 1 1 1 1 1 1 1 1 1 1 1 1 1 1 1 1 1 1 1 1 1 1 1 1 1 1 1 1 1 1 1 1 1 1 1 1 1 1 1 1 1 1 1 1 1 1 1 1 1 1 1 1 1 1 1 1 1 1 1 1 1 1 1 1 1 1 1 1 1 1 1 1 1 1 1 1 1 1 1 1 1 1 1 1 1 1 1 1 1 1 1 1 1 1 1 1 1 1 1 1 1 1 1 1 1 1 1 1 1 1 1 1 1 1 1 1 1 1 1 1 1 1 1 1 1 1 1 1 1 1 1 1 1 1 1 1 1 1 1 1 0.999999 0.999996 0.999988 0.999969 0.999924 0.999831 0.999656 0.999354 0.998871 0.998152 0.997152 0.995839 0.994206 0.992266 0.990054 0.987619 0.985014 0.982297 0.979516 0.976714 0.973923 0.971168 0.968464 0.965821 0.963245 0.960739 0.958306 0.955951 0.953681 0.951505 0.949436 0.949436 
1.07243 1.0733 1.07337 1.07341 1.07349 1.0736 1.07369 1.07386 1.07398 1.07427 1.07451 1.07499 1.07545 1.07621 1.07699 1.07807 1.0792 1.08055 1.08192 1.08338 1.08476 1.08608 1.08723 1.08821 1.08894 1.0891 1.08769 1.08293 1.07306 1.05811 1.04084 1.02519 1.0137 1.00664 1.00289 1.00114 1.0004 1.00013 1.00004 1.00001 1 1 1 1 1 1 1 1 1 1 1 1 1 1 1 1 1 1 1 1 1 1 1 1 1 1 1 1 1 1 1 1 1 1 1 1 1 1 1 1 1 1 1 1 1 1 1 1 1 1 1 1 1 1 1 1 1 1 1 1 1 1 1 1 1 1 1 1 1 1 1 1 1 1 1 1 1 1 1 1 1 1 1 1 1 1 1 1 1 1 1 1 1 1 1 1 1 1 1 1 1 1 1 1 1 1 1 1 1 1 1 1 1 1 1 1 1 1 1 1 1 1 1 1 1 1 1 1 1 1 1 1 1 1 1 1 1 1 1 1 1 1 1 1 1 1 1 1 1 1 1 1 1 1 1 1 1 1 1 1 1 1 1 1 1 1 1 1 1 1 1 1 1 1 1 1 1 1 1 1 1 1 1 1 1 0.999999 0.999995 0.999986 0.999964 0.999917 0.999821 0.999646 0.999352 0.998891 0.998217 0.997292 0.996091 0.994605 0.992848 0.990846 0.98864 0.986276 0.983802 0.981262 0.978695 0.976134 0.973603 0.971121 0.968704 0.966362 0.964106 0.961943 0.959887 0.957951 0.956151 0.956151 
1.07425 1.07533 1.07518 1.0751 1.07509 1.07516 1.07524 1.07545 1.07565 1.07605 1.07642 1.07705 1.07766 1.07856 1.07944 1.08058 1.08171 1.08299 1.0842 1.08544 1.08656 1.08757 1.08839 1.08907 1.08954 1.08949 1.08792 1.08305 1.07312 1.05814 1.04085 1.02519 1.0137 1.00664 1.00289 1.00114 1.0004 1.00013 1.00004 1.00001 1 1 1 1 1 1 1 1 1 1 1 1 1 1 1 1 1 1 1 1 1 1 1 1 1 1 1 1 1 1 1 1 1 1 1 1 1 1 1 1 1 1 1 1 1 1 1 1 1 1 1 1 1 1 1 1 1 1 1 1 1 1 1 1 1 1 1 1 1 1 1 1 1 1 1 1 1 1 1 1 1 1 1 1 1 1 1 1 1 1 1 1 1 1 1 1 1 1 1 1 1 1 1 1 1 1 1 1 1 1 1 1 1 1 1 1 1 1 1 1 1 1 1 1 1 1 1 1 1 1 1 1 1 1 1 1 1 1 1 1 1 1 1 1 1 1 1 1 1 1 1 1 1 1 1 1 1 1 1 1 1 1 1 1 1 1 1 1 1 1 1 1 1 1 1 1 1 1 1 1 1 1 1 1 1 0.999999 0.999998 0.999995 0.999985 0.999962 0.999914 0.999821 0.999655 0.999381 0.99896 0.998353 0.997529 0.996467 0.995159 0.993615 0.991857 0.989917 0.987834 0.985648 0.983399 0.981122 0.97885 0.976609 0.974421 0.972304 0.970276 0.968352 0.966547 0.96488 0.96337 0.96337 
1.07686 1.07799 1.07767 1.07747 1.07738 1.0774 1.07747 1.0777 1.07795 1.0784 1.07885 1.07955 1.08021 1.08113 1.082 1.08308 1.08408 1.08518 1.08617 1.08713 1.08795 1.08866 1.08921 1.08965 1.08991 1.08972 1.08805 1.08312 1.07315 1.05815 1.04085 1.02519 1.0137 1.00664 1.00289 1.00114 1.0004 1.00013 1.00004 1.00001 1 1 1 1 1 1 1 1 1 1 1 1 1 1 1 1 1 1 1 1 1 1 1 1 1 1 1 1 1 1 1 1 1 1 1 1 1 1 1 1 1 1 1 1 1 1 1 1 1 1 1 1 1 1 1 1 1 1 1 1 1 1 1 1 1 1 1 1 1 1 1 1 1 1 1 1 1 1 1 1 1 1 1 1 1 1 1 1 1 1 1 1 1 1 1 1 1 1 1 1 1 1 1 1 1 1 1 1 1 1 1 1 1 1 1 1 1 1 1 1 1 1 1 1 1 1 1 1 1 1 1 1 1 1 1 1 1 1 1 1 1 1 1 1 1 1 1 1 1 1 1 1 1 1 1 1 1 1 1 1 1 1 1 1 1 1 1 1 1 1 1 1 1 1 1 1 1 1 1 1 1 1 1 1 1 1 0.999999 0.999998 0.999994 0.999984 0.999962 0.999917 0.99983 0.99968 0.999438 0.99907 0.998547 0.997842 0.996938 0.995829 0.994521 0.993032 0.991386 0.989617 0.987757 0.985843 0.983906 0.981979 0.980087 0.978256 0.976507 0.974862 0.973339 0.971959 0.970746 0.970746 
1.07987 1.0809 1.08049 1.08022 1.08007 1.08005 1.0801 1.08033 1.08058 1.08104 1.08148 1.08217 1.08279 1.08364 1.0844 1.08532 1.08612 1.08698 1.08771 1.0884 1.08895 1.08941 1.08974 1.09 1.09013 1.08984 1.08811 1.08315 1.07316 1.05815 1.04085 1.02519 1.0137 1.00664 1.00289 1.00114 1.0004 1.00013 1.00004 1.00001 1 1 1 1 1 1 1 1 1 1 1 1 1 1 1 1 1 1 1 1 1 1 1 1 1 1 1 1 1 1 1 1 1 1 1 1 1 1 1 1 1 1 1 1 1 1 1 1 1 1 1 1 1 1 1 1 1 1 1 1 1 1 1 1 1 1 1 1 1 1 1 1 1 1 1 1 1 1 1 1 1 1 1 1 1 1 1 1 1 1 1 1 1 1 1 1 1 1 1 1 1 1 1 1 1 1 1 1 1 1 1 1 1 1 1 1 1 1 1 1 1 1 1 1 1 1 1 1 1 1 1 1 1 1 1 1 1 1 1 1 1 1 1 1 1 1 1 1 1 1 1 1 1 1 1 1 1 1 1 1 1 1 1 1 1 1 1 1 1 1 1 1 1 1 1 1 1 1 1 1 1 1 1 1 1 1 1 0.999999 0.999998 0.999994 0.999985 0.999965 0.999924 0.999849 0.99972 0.999516 0.99921 0.998779 0.998202 0.997466 0.996565 0.995503 0.994294 0.992959 0.991522 0.990013 0.988462 0.9869 0.985354 0.983853 0.982421 0.981081 0.979856 0.978768 0.97784 0.97784 
1.08282 1.08367 1.08325 1.08296 1.08279 1.08275 1.08278 1.08298 1.0832 1.08363 1.08401 1.08461 1.08513 1.08584 1.08642 1.08714 1.08771 1.08833 1.08881 1.08927 1.08959 1.08987 1.09005 1.09019 1.09024 1.0899 1.08814 1.08316 1.07316 1.05815 1.04085 1.02519 1.0137 1.00664 1.00289 1.00114 1.0004 1.00013 1.00004 1.00001 1 1 1 1 1 1 1 1 1 1 1 1 1 1 1 1 1 1 1 1 1 1 1 1 1 1 1 1 1 1 1 1 1 1 1 1 1 1 1 1 1 1 1 1 1 1 1 1 1 1 1 1 1 1 1 1 1 1 1 1 1 1 1 1 1 1 1 1 1 1 1 1 1 1 1 1 1 1 1 1 1 1 1 1 1 1 1 1 1 1 1 1 1 1 1 1 1 1 1 1 1 1 1 1 1 1 1 1 1 1 1 1 1 1 1 1 1 1 1 1 1 1 1 1 1 1 1 1 1 1 1 1 1 1 1 1 1 1 1 1 1 1 1 1 1 1 1 1 1 1 1 1 1 1 1 1 1 1 1 1 1 1 1 1 1 1 1 1 1 1 1 1 1 1 1 1 1 1 1 1 1 1 1 1 1 1 1 1 0.999999 0.999998 0.999995 0.999986 0.999969 0.999935 0.999873 0.999769 0.999606 0.999364 0.999026 0.998577 0.998006 0.997309 0.99649 0.995557 0.994529 0.993425 0.992269 0.991087 0.989906 0.988752 0.987649 0.986621 0.98569 0.984879 0.98421 0.98421 