# vtk DataFile Version 3.0
LBM simulation at step 190
ASCII
DATASET STRUCTURED_POINTS
DIMENSIONS 256 256 1
ORIGIN 0 0 0
SPACING 1 1 1
POINT_DATA 65536
SCALARS density float
LOOKUP_TABLE default
0.741438 1.08795 1.13465 1.09238 1.08415 1.09295 1.09469 1.09285 1.09223 1.09236 1.09231 1.09211 1.09198 1.09189 1.0918 1.09171 1.09162 1.09155 1.09148 1.09141 1.09134 1.09128 1.09122 1.09116 1.09111 1.09106 1.09101 1.09096 1.09091 1.09087 1.09083 1.09079 1.09075 1.09071 1.09067 1.09063 1.0906 1.09056 1.09053 1.09049 1.09046 1.09043 1.09039 1.09036 1.09033 1.0903 1.09027 1.09024 1.09021 1.09018 1.09015 1.09012 1.09009 1.09006 1.09003 1.09 1.08997 1.08993 1.0899 1.08987 1.08984 1.08981 1.08978 1.08975 1.08972 1.08968 1.08965 1.08962 1.08958 1.08955 1.08951 1.08948 1.08944 1.0894 1.08936 1.08932 1.08928 1.08924 1.0892 1.08915 1.08911 1.08906 1.08901 1.08896 1.08891 1.08885 1.0888 1.08874 1.08867 1.08861 1.08854 1.08846 1.08839 1.08831 1.08823 1.08816 1.0881 1.08803 1.08796 1.08787 1.08769 1.08737 1.08677 1.0857 1.08394 1.08123 1.0773 1.07197 1.06524 1.05728 1.04852 1.03954 1.03096 1.02329 1.01687 1.01178 1.00795 1.0052 1.00331 1.00204 1.00123 1.00072 1.00041 1.00023 1.00012 1.00006 1.00003 1.00002 1.00001 1 0.999999 0.999996 0.999992 0.999985 0.999974 0.999956 0.999927 0.999883 0.999817 0.999721 0.999585 0.999398 0.999147 0.99882 0.998405 0.997893 0.997276 0.996551 0.995718 0.994783 0.993756 0.992651 0.991483 0.990271 0.989033 0.987788 0.986552 0.985338 0.984158 0.983019 0.981925 0.980879 0.979878 0.978922 0.978005 0.977123 0.976272 0.975446 0.974642 0.973857 0.973087 0.972331 0.971586 0.970852 0.970127 0.96941 0.968701 0.967999 0.967303 0.966613 0.965928 0.965248 0.964572 0.963899 0.96323 0.962565 0.961901 0.96124 0.960581 0.959924 0.959268 0.958613 0.957958 0.957304 0.95665 0.955996 0.955342 0.954686 0.95403 0.953372 0.952713 0.952052 0.951388 0.950722 0.950053 0.949381 0.948705 0.948026 0.947342 0.946654 0.94596 0.945261 0.944556 0.943845 0.943127 0.942401 0.941667 0.940924 0.940172 0.93941 0.938637 0.937851 0.937053 0.936241 0.935414 0.934571 0.93371 0.932829 0.931927 0.931001 0.93005 0.92907 0.928059 0.927014 0.92593 0.924802 0.923625 0.922393 0.921097 0.91973 0.918278 0.916728 0.915063 0.91326 0.911288 0.909115 0.90669 0.903897 0.900637 0.896999 0.892585 0.885361 0.875999 0.871256 0.849304 0.693426 
1.13102 1.06436 1.05941 1.09453 1.09796 1.09244 1.09154 1.09265 1.09273 1.09235 1.09216 1.09208 1.09198 1.09187 1.09177 1.09169 1.09161 1.09153 1.09146 1.0914 1.09133 1.09127 1.09121 1.09116 1.0911 1.09105 1.09099 1.09095 1.0909 1.09086 1.09081 1.09078 1.09073 1.0907 1.09065 1.09062 1.09058 1.09055 1.09051 1.09048 1.09044 1.09041 1.09038 1.09035 1.09031 1.09028 1.09025 1.09022 1.09019 1.09016 1.09013 1.0901 1.09007 1.09004 1.09001 1.08997 1.08994 1.08991 1.08988 1.08985 1.08982 1.08979 1.08975 1.08972 1.08969 1.08965 1.08962 1.08959 1.08955 1.08951 1.08948 1.08944 1.0894 1.08936 1.08932 1.08928 1.08924 1.0892 1.08915 1.0891 1.08906 1.08901 1.08895 1.0889 1.08885 1.08879 1.08873 1.08866 1.08859 1.08852 1.08845 1.08837 1.08828 1.0882 1.08811 1.08802 1.08793 1.08784 1.08773 1.08757 1.08732 1.08689 1.08616 1.08498 1.08313 1.08041 1.07659 1.07154 1.0652 1.05773 1.04942 1.04077 1.03235 1.02467 1.01809 1.01279 1.00874 1.00578 1.00371 1.00231 1.0014 1.00083 1.00048 1.00027 1.00015 1.00008 1.00004 1.00002 1.00001 1 0.999999 0.999996 0.999991 0.999983 0.99997 0.99995 0.999919 0.99987 0.999798 0.999695 0.99955 0.999352 0.999089 0.99875 0.998322 0.997798 0.99717 0.996437 0.995599 0.994662 0.993637 0.992537 0.991377 0.990176 0.988951 0.987719 0.986496 0.985295 0.984126 0.982996 0.98191 0.980869 0.979873 0.978918 0.978003 0.977121 0.976269 0.975442 0.974638 0.973851 0.973081 0.972324 0.971578 0.970843 0.970118 0.969401 0.968691 0.967989 0.967292 0.966602 0.965916 0.965236 0.964559 0.963886 0.963217 0.962551 0.961887 0.961226 0.960566 0.959908 0.959252 0.958596 0.957941 0.957287 0.956632 0.955977 0.955322 0.954666 0.954009 0.953351 0.952691 0.952029 0.951364 0.950697 0.950028 0.949355 0.948678 0.947997 0.947313 0.946623 0.945928 0.945228 0.944522 0.943809 0.943089 0.942362 0.941626 0.940881 0.940127 0.939363 0.938587 0.9378 0.936999 0.936184 0.935354 0.934507 0.933641 0.932756 0.93185 0.930919 0.929962 0.928976 0.927958 0.926905 0.925811 0.924673 0.923485 0.922239 0.920929 0.919543 0.91807 0.916496 0.9148 0.912962 0.910948 0.908711 0.906201 0.903383 0.900088 0.895874 0.890869 0.886062 0.878011 0.854981 0.832166 0.832166 
1.14027 1.0685 1.07732 1.09688 1.0938 1.09123 1.09225 1.09282 1.09247 1.09221 1.09214 1.09205 1.09193 1.09183 1.09174 1.09166 1.09158 1.09151 1.09144 1.09138 1.09131 1.09126 1.09119 1.09114 1.09108 1.09104 1.09098 1.09094 1.09089 1.09085 1.0908 1.09077 1.09072 1.09069 1.09064 1.09061 1.09057 1.09054 1.0905 1.09047 1.09043 1.0904 1.09036 1.09033 1.0903 1.09027 1.09023 1.0902 1.09017 1.09014 1.09011 1.09008 1.09005 1.09002 1.08998 1.08995 1.08992 1.08989 1.08986 1.08982 1.08979 1.08976 1.08973 1.08969 1.08966 1.08962 1.08959 1.08955 1.08952 1.08948 1.08944 1.0894 1.08936 1.08932 1.08928 1.08924 1.08919 1.08915 1.0891 1.08905 1.089 1.08895 1.08889 1.08884 1.08878 1.08871 1.08865 1.08858 1.0885 1.08843 1.08834 1.08825 1.08816 1.08806 1.08796 1.08785 1.08774 1.08761 1.08745 1.08723 1.0869 1.08639 1.08559 1.08434 1.08248 1.07982 1.07617 1.07139 1.06541 1.05833 1.05037 1.04196 1.03362 1.02589 1.01917 1.01367 1.0094 1.00626 1.00404 1.00254 1.00155 1.00092 1.00053 1.0003 1.00016 1.00009 1.00005 1.00002 1.00001 1 0.999999 0.999995 0.99999 0.999981 0.999968 0.999946 0.999912 0.99986 0.999784 0.999675 0.999523 0.999316 0.999044 0.998694 0.998255 0.99772 0.997083 0.996341 0.995498 0.994558 0.993533 0.992436 0.991283 0.99009 0.988875 0.987654 0.986442 0.985252 0.984094 0.982973 0.981895 0.980861 0.979869 0.978918 0.978004 0.977123 0.976272 0.975445 0.97464 0.973853 0.973081 0.972324 0.971578 0.970842 0.970116 0.969399 0.968689 0.967985 0.967289 0.966598 0.965912 0.965231 0.964554 0.963881 0.963211 0.962544 0.96188 0.961218 0.960559 0.9599 0.959243 0.958587 0.957932 0.957277 0.956622 0.955966 0.955311 0.954654 0.953996 0.953337 0.952677 0.952014 0.951349 0.950682 0.950011 0.949337 0.94866 0.947979 0.947293 0.946603 0.945907 0.945206 0.944499 0.943785 0.943064 0.942335 0.941598 0.940853 0.940097 0.939331 0.938554 0.937765 0.936963 0.936146 0.935314 0.934465 0.933597 0.93271 0.9318 0.930867 0.929907 0.928918 0.927896 0.926839 0.925742 0.924599 0.923406 0.922155 0.920839 0.919448 0.917969 0.916389 0.914688 0.912844 0.91083 0.908607 0.906098 0.903254 0.900107 0.896354 0.891223 0.885619 0.881801 0.872415 0.856362 0.856362 
1.057 1.09289 1.10573 1.0881 1.08794 1.09326 1.09338 1.09216 1.09206 1.09224 1.09214 1.09197 1.09187 1.09179 1.09171 1.09163 1.09155 1.09149 1.09141 1.09136 1.09129 1.09124 1.09117 1.09113 1.09106 1.09102 1.09096 1.09093 1.09087 1.09084 1.09078 1.09075 1.0907 1.09067 1.09062 1.09059 1.09055 1.09052 1.09048 1.09045 1.09041 1.09038 1.09034 1.09031 1.09028 1.09025 1.09021 1.09018 1.09015 1.09012 1.09009 1.09006 1.09002 1.08999 1.08996 1.08993 1.0899 1.08986 1.08983 1.0898 1.08977 1.08973 1.0897 1.08966 1.08963 1.08959 1.08956 1.08952 1.08948 1.08944 1.0894 1.08936 1.08932 1.08928 1.08924 1.08919 1.08915 1.0891 1.08905 1.089 1.08894 1.08889 1.08883 1.08877 1.0887 1.08864 1.08857 1.08849 1.08841 1.08833 1.08823 1.08814 1.08803 1.08792 1.08781 1.08768 1.08754 1.08738 1.08718 1.08692 1.08654 1.08597 1.08511 1.08383 1.08197 1.07937 1.07586 1.0713 1.06562 1.05886 1.05121 1.04302 1.03479 1.02703 1.02018 1.0145 1.01005 1.00674 1.00438 1.00276 1.00169 1.00101 1.00059 1.00033 1.00018 1.0001 1.00005 1.00003 1.00001 1 0.999999 0.999995 0.999989 0.99998 0.999965 0.999942 0.999906 0.999851 0.999771 0.999657 0.999499 0.999285 0.999005 0.998646 0.998198 0.997654 0.997009 0.996261 0.995413 0.994472 0.993447 0.992353 0.991205 0.99002 0.988813 0.987602 0.9864 0.985219 0.98407 0.982957 0.981886 0.980857 0.979869 0.978921 0.978009 0.97713 0.976279 0.975452 0.974647 0.973859 0.973088 0.972329 0.971583 0.970847 0.970121 0.969403 0.968692 0.967989 0.967292 0.9666 0.965914 0.965233 0.964555 0.963882 0.963212 0.962545 0.96188 0.961218 0.960558 0.959899 0.959242 0.958585 0.957929 0.957274 0.956619 0.955963 0.955307 0.95465 0.953992 0.953332 0.952671 0.952008 0.951343 0.950675 0.950004 0.949329 0.948652 0.94797 0.947284 0.946593 0.945896 0.945195 0.944487 0.943772 0.943051 0.942322 0.941584 0.940838 0.940082 0.939315 0.938537 0.937748 0.936944 0.936127 0.935294 0.934444 0.933576 0.932688 0.931778 0.930844 0.929884 0.928895 0.927874 0.926817 0.92572 0.924579 0.923387 0.92214 0.920828 0.919442 0.917971 0.916403 0.91472 0.9129 0.910914 0.908742 0.906351 0.903613 0.900443 0.897122 0.893455 0.887577 0.880667 0.877981 0.874765 0.874765 
1.09656 1.09635 1.08878 1.08885 1.09386 1.09289 1.09167 1.09205 1.09234 1.09215 1.09197 1.0919 1.09183 1.09175 1.09166 1.09159 1.09152 1.09146 1.09139 1.09133 1.09126 1.09122 1.09115 1.09111 1.09104 1.09101 1.09094 1.09091 1.09085 1.09082 1.09076 1.09074 1.09068 1.09066 1.0906 1.09058 1.09053 1.0905 1.09046 1.09043 1.09039 1.09036 1.09032 1.0903 1.09026 1.09023 1.09019 1.09016 1.09013 1.0901 1.09006 1.09003 1.09 1.08997 1.08994 1.0899 1.08987 1.08984 1.0898 1.08977 1.08974 1.0897 1.08967 1.08963 1.0896 1.08956 1.08952 1.08949 1.08945 1.08941 1.08937 1.08932 1.08928 1.08924 1.08919 1.08915 1.0891 1.08905 1.089 1.08894 1.08888 1.08883 1.08876 1.0887 1.08863 1.08856 1.08849 1.0884 1.08832 1.08823 1.08813 1.08802 1.08791 1.08779 1.08766 1.08752 1.08736 1.08717 1.08694 1.08664 1.08621 1.08558 1.08467 1.08335 1.0815 1.07895 1.07556 1.07121 1.06582 1.05937 1.05201 1.04404 1.03591 1.02813 1.02117 1.01532 1.01068 1.0072 1.0047 1.00298 1.00183 1.0011 1.00064 1.00036 1.0002 1.00011 1.00006 1.00003 1.00001 1.00001 1 0.999995 0.999988 0.999979 0.999963 0.999939 0.999901 0.999844 0.999761 0.999642 0.999479 0.999259 0.998971 0.998604 0.998149 0.997598 0.996946 0.996193 0.995342 0.994399 0.993376 0.992285 0.991143 0.989964 0.988766 0.987563 0.98637 0.985198 0.984056 0.982951 0.981885 0.980861 0.979877 0.978931 0.978021 0.977142 0.976291 0.975465 0.974659 0.973872 0.973099 0.972341 0.971594 0.970858 0.970131 0.969413 0.968702 0.967998 0.967301 0.966609 0.965923 0.965241 0.964563 0.96389 0.963219 0.962552 0.961887 0.961224 0.960564 0.959905 0.959247 0.95859 0.957934 0.957278 0.956623 0.955967 0.95531 0.954653 0.953995 0.953335 0.952673 0.95201 0.951344 0.950676 0.950005 0.94933 0.948652 0.94797 0.947284 0.946592 0.945896 0.945194 0.944486 0.943771 0.94305 0.94232 0.941583 0.940836 0.94008 0.939314 0.938536 0.937746 0.936944 0.936127 0.935294 0.934445 0.933578 0.932691 0.931783 0.93085 0.929892 0.928906 0.927888 0.926835 0.925743 0.924608 0.923425 0.922187 0.920887 0.919517 0.918068 0.916525 0.914877 0.913106 0.911188 0.909088 0.906803 0.904326 0.90147 0.898148 0.895006 0.891784 0.886698 0.882555 0.880588 0.880588 
1.09847 1.09163 1.08966 1.09427 1.09277 1.09106 1.09203 1.09244 1.09209 1.09191 1.09191 1.09186 1.09176 1.09168 1.09161 1.09155 1.09148 1.09142 1.09135 1.0913 1.09123 1.09119 1.09112 1.09109 1.09102 1.09099 1.09092 1.09089 1.09083 1.0908 1.09074 1.09072 1.09066 1.09064 1.09058 1.09056 1.09051 1.09049 1.09044 1.09042 1.09037 1.09035 1.0903 1.09028 1.09024 1.09021 1.09017 1.09014 1.09011 1.09008 1.09004 1.09001 1.08998 1.08995 1.08991 1.08988 1.08985 1.08981 1.08978 1.08974 1.08971 1.08967 1.08964 1.0896 1.08957 1.08953 1.08949 1.08945 1.08941 1.08937 1.08933 1.08928 1.08924 1.0892 1.08915 1.0891 1.08905 1.089 1.08894 1.08889 1.08883 1.08877 1.0887 1.08863 1.08856 1.08849 1.08841 1.08832 1.08823 1.08813 1.08803 1.08792 1.0878 1.08766 1.08752 1.08736 1.08718 1.08697 1.08671 1.08636 1.08588 1.0852 1.08425 1.0829 1.08105 1.07856 1.0753 1.07116 1.06602 1.05987 1.05279 1.04502 1.03699 1.0292 1.02213 1.01612 1.01131 1.00766 1.00502 1.00319 1.00197 1.00118 1.00069 1.00039 1.00022 1.00012 1.00006 1.00003 1.00001 1.00001 1 0.999994 0.999988 0.999977 0.999961 0.999936 0.999896 0.999837 0.999751 0.99963 0.999462 0.999236 0.998943 0.99857 0.998108 0.997551 0.996893 0.996136 0.995283 0.99434 0.993318 0.992231 0.991093 0.989921 0.988731 0.987537 0.986352 0.985188 0.984054 0.982954 0.981894 0.980873 0.979892 0.978949 0.97804 0.977162 0.976311 0.975484 0.974678 0.97389 0.973118 0.972359 0.971611 0.970875 0.970148 0.969429 0.968718 0.968014 0.967316 0.966624 0.965937 0.965255 0.964577 0.963903 0.963233 0.962565 0.9619 0.961237 0.960576 0.959917 0.959259 0.958602 0.957946 0.95729 0.956634 0.955977 0.955321 0.954663 0.954005 0.953345 0.952683 0.95202 0.951354 0.950685 0.950014 0.949339 0.948661 0.947979 0.947293 0.946601 0.945905 0.945203 0.944495 0.943781 0.943059 0.94233 0.941593 0.940847 0.940092 0.939326 0.938549 0.93776 0.936958 0.936143 0.935312 0.934465 0.9336 0.932716 0.93181 0.930881 0.929928 0.928946 0.927934 0.926888 0.925805 0.924681 0.92351 0.922287 0.921007 0.919661 0.91824 0.916736 0.915134 0.913421 0.911589 0.909608 0.907435 0.905099 0.902656 0.899833 0.896525 0.893642 0.890868 0.887714 0.885445 0.885445 
1.08968 1.09215 1.09361 1.09244 1.09112 1.0922 1.09241 1.09191 1.09184 1.09193 1.09186 1.09175 1.09168 1.09163 1.09156 1.0915 1.09143 1.09138 1.09132 1.09127 1.0912 1.09116 1.09109 1.09106 1.09099 1.09096 1.0909 1.09087 1.0908 1.09078 1.09072 1.0907 1.09064 1.09062 1.09056 1.09054 1.09049 1.09047 1.09042 1.0904 1.09035 1.09033 1.09028 1.09026 1.09021 1.09019 1.09015 1.09012 1.09008 1.09006 1.09002 1.08999 1.08995 1.08992 1.08989 1.08985 1.08982 1.08979 1.08975 1.08972 1.08968 1.08965 1.08961 1.08957 1.08953 1.0895 1.08946 1.08942 1.08937 1.08933 1.08929 1.08925 1.0892 1.08915 1.0891 1.08905 1.089 1.08895 1.08889 1.08883 1.08877 1.08871 1.08864 1.08857 1.08849 1.08841 1.08833 1.08824 1.08814 1.08804 1.08793 1.08781 1.08768 1.08754 1.08738 1.08721 1.08701 1.08677 1.08647 1.08608 1.08555 1.08483 1.08384 1.08247 1.08063 1.07821 1.07508 1.07112 1.06624 1.06036 1.05354 1.04598 1.03805 1.03025 1.02307 1.0169 1.01192 1.0081 1.00533 1.0034 1.00211 1.00127 1.00074 1.00042 1.00024 1.00013 1.00007 1.00003 1.00002 1.00001 1 0.999994 0.999987 0.999977 0.99996 0.999934 0.999893 0.999832 0.999744 0.999619 0.999448 0.999218 0.99892 0.998541 0.998074 0.997512 0.996851 0.99609 0.995235 0.994292 0.993273 0.992189 0.991057 0.989891 0.988708 0.987522 0.986345 0.985188 0.98406 0.982967 0.981911 0.980894 0.979916 0.978974 0.978066 0.977189 0.976338 0.975511 0.974704 0.973916 0.973143 0.972383 0.971635 0.970898 0.97017 0.969451 0.96874 0.968035 0.967337 0.966645 0.965958 0.965275 0.964597 0.963923 0.963252 0.962584 0.961919 0.961256 0.960595 0.959935 0.959277 0.95862 0.957963 0.957307 0.956651 0.955995 0.955338 0.95468 0.954022 0.953362 0.9527 0.952036 0.95137 0.950702 0.950031 0.949356 0.948678 0.947996 0.94731 0.946619 0.945923 0.945221 0.944514 0.9438 0.943079 0.942351 0.941614 0.940869 0.940115 0.93935 0.938574 0.937787 0.936987 0.936174 0.935345 0.934501 0.933639 0.932759 0.931858 0.930934 0.929986 0.929012 0.928008 0.926972 0.9259 0.924789 0.923634 0.922431 0.921174 0.919857 0.918472 0.917011 0.915465 0.913821 0.912068 0.910207 0.908212 0.906028 0.903731 0.901421 0.898806 0.896011 0.893552 0.891125 0.889034 0.889034 
1.09206 1.09234 1.09225 1.09157 1.09215 1.09232 1.09179 1.0918 1.09193 1.09183 1.09171 1.09167 1.09162 1.09156 1.0915 1.09145 1.09138 1.09134 1.09127 1.09123 1.09117 1.09113 1.09106 1.09103 1.09096 1.09094 1.09087 1.09085 1.09078 1.09076 1.09069 1.09068 1.09061 1.0906 1.09054 1.09052 1.09046 1.09045 1.09039 1.09038 1.09032 1.09031 1.09026 1.09024 1.09019 1.09017 1.09013 1.0901 1.09006 1.09003 1.08999 1.08997 1.08993 1.0899 1.08986 1.08983 1.08979 1.08976 1.08972 1.08969 1.08965 1.08962 1.08958 1.08954 1.0895 1.08946 1.08942 1.08938 1.08934 1.0893 1.08925 1.08921 1.08916 1.08911 1.08906 1.08901 1.08895 1.0889 1.08884 1.08878 1.08872 1.08865 1.08858 1.0885 1.08843 1.08834 1.08825 1.08816 1.08806 1.08795 1.08783 1.0877 1.08756 1.08741 1.08724 1.08705 1.08682 1.08656 1.08623 1.0858 1.08524 1.08447 1.08345 1.08207 1.08025 1.07789 1.07489 1.07111 1.06646 1.06085 1.05428 1.0469 1.03907 1.03126 1.02399 1.01767 1.01252 1.00855 1.00564 1.00361 1.00224 1.00135 1.00079 1.00045 1.00025 1.00014 1.00007 1.00004 1.00002 1.00001 1 0.999994 0.999987 0.999976 0.999959 0.999932 0.99989 0.999828 0.999738 0.999611 0.999437 0.999204 0.998902 0.99852 0.998049 0.997482 0.996818 0.996056 0.9952 0.994257 0.99324 0.99216 0.991033 0.989873 0.988697 0.987518 0.986348 0.985198 0.984077 0.982988 0.981937 0.980923 0.979948 0.979007 0.9781 0.977223 0.976372 0.975545 0.974738 0.973948 0.973174 0.972414 0.971666 0.970928 0.9702 0.96948 0.968768 0.968063 0.967365 0.966672 0.965985 0.965302 0.964624 0.963949 0.963278 0.96261 0.961944 0.961281 0.960619 0.95996 0.959301 0.958644 0.957987 0.957331 0.956675 0.956018 0.955361 0.954704 0.954045 0.953385 0.952723 0.95206 0.951394 0.950726 0.950054 0.94938 0.948702 0.94802 0.947335 0.946644 0.945948 0.945247 0.944541 0.943827 0.943107 0.94238 0.941645 0.940901 0.940148 0.939385 0.938611 0.937826 0.937029 0.936218 0.935392 0.934552 0.933694 0.932818 0.931922 0.931005 0.930064 0.929098 0.928104 0.927079 0.926021 0.924925 0.923789 0.922608 0.921378 0.920092 0.918746 0.917331 0.915843 0.914273 0.912609 0.910843 0.908992 0.907033 0.904904 0.902722 0.900561 0.898262 0.895999 0.893914 0.892046 0.892046 
1.09264 1.09194 1.09174 1.09201 1.09215 1.09177 1.09178 1.0919 1.09178 1.09168 1.09165 1.09162 1.09155 1.09149 1.09144 1.09139 1.09133 1.09129 1.09123 1.09119 1.09113 1.0911 1.09103 1.091 1.09093 1.09091 1.09084 1.09082 1.09075 1.09074 1.09067 1.09066 1.09059 1.09058 1.09051 1.0905 1.09044 1.09043 1.09037 1.09036 1.0903 1.09029 1.09023 1.09022 1.09017 1.09015 1.0901 1.09008 1.09004 1.09001 1.08997 1.08994 1.0899 1.08987 1.08984 1.0898 1.08977 1.08973 1.0897 1.08966 1.08962 1.08959 1.08955 1.08951 1.08947 1.08943 1.08939 1.08935 1.0893 1.08926 1.08921 1.08917 1.08912 1.08907 1.08902 1.08896 1.08891 1.08885 1.08879 1.08872 1.08866 1.08859 1.08852 1.08844 1.08836 1.08827 1.08818 1.08808 1.08797 1.08785 1.08773 1.08759 1.08744 1.08728 1.08709 1.08688 1.08664 1.08635 1.08599 1.08553 1.08493 1.08413 1.08308 1.08169 1.0799 1.07761 1.07472 1.07113 1.0667 1.06133 1.05499 1.0478 1.04006 1.03225 1.02489 1.01843 1.0131 1.00898 1.00594 1.00381 1.00237 1.00143 1.00084 1.00048 1.00027 1.00015 1.00008 1.00004 1.00002 1.00001 1 0.999994 0.999987 0.999976 0.999958 0.999931 0.999889 0.999826 0.999734 0.999606 0.999429 0.999194 0.998889 0.998504 0.99803 0.997462 0.996795 0.996032 0.995176 0.994235 0.993219 0.992144 0.991021 0.989868 0.988698 0.987525 0.986362 0.985218 0.984102 0.983019 0.981971 0.98096 0.979987 0.979048 0.978141 0.977264 0.976413 0.975585 0.974777 0.973987 0.973213 0.972452 0.971703 0.970965 0.970236 0.969516 0.968803 0.968098 0.967399 0.966706 0.966018 0.965335 0.964656 0.963981 0.963309 0.962641 0.961975 0.961312 0.96065 0.95999 0.959332 0.958674 0.958017 0.957361 0.956704 0.956048 0.955391 0.954733 0.954075 0.953415 0.952753 0.952089 0.951424 0.950756 0.950085 0.949411 0.948733 0.948052 0.947366 0.946676 0.945981 0.945281 0.944575 0.943863 0.943144 0.942418 0.941684 0.940941 0.94019 0.939429 0.938658 0.937875 0.93708 0.936273 0.935451 0.934615 0.933762 0.932891 0.932002 0.931091 0.930159 0.929202 0.928218 0.927206 0.926162 0.925084 0.923968 0.92281 0.921608 0.920355 0.919049 0.917682 0.91625 0.914749 0.913176 0.911517 0.90977 0.907966 0.906082 0.904089 0.902095 0.900112 0.898117 0.896224 0.894527 0.894527 
1.09171 1.09187 1.09193 1.09193 1.09177 1.09175 1.09184 1.09173 1.09164 1.09164 1.09159 1.09153 1.09147 1.09143 1.09138 1.09134 1.09128 1.09124 1.09119 1.09115 1.09109 1.09106 1.09099 1.09097 1.0909 1.09088 1.09081 1.09079 1.09073 1.09071 1.09064 1.09063 1.09056 1.09056 1.09049 1.09048 1.09042 1.09041 1.09035 1.09033 1.09028 1.09026 1.09021 1.09019 1.09014 1.09012 1.09008 1.09005 1.09001 1.08999 1.08995 1.08992 1.08988 1.08985 1.08981 1.08978 1.08974 1.0897 1.08967 1.08963 1.08959 1.08956 1.08952 1.08948 1.08944 1.0894 1.08935 1.08931 1.08927 1.08922 1.08917 1.08913 1.08908 1.08903 1.08897 1.08892 1.08886 1.0888 1.08874 1.08867 1.0886 1.08853 1.08845 1.08837 1.08829 1.08819 1.0881 1.08799 1.08788 1.08776 1.08762 1.08748 1.08732 1.08714 1.08695 1.08672 1.08646 1.08614 1.08575 1.08526 1.08462 1.0838 1.08273 1.08134 1.07958 1.07736 1.07459 1.07116 1.06694 1.06181 1.05569 1.04867 1.04103 1.03322 1.02577 1.01917 1.01368 1.0094 1.00624 1.00401 1.0025 1.00151 1.00089 1.00051 1.00028 1.00015 1.00008 1.00004 1.00002 1.00001 1 0.999994 0.999987 0.999975 0.999958 0.99993 0.999888 0.999824 0.999732 0.999603 0.999425 0.999188 0.998882 0.998495 0.99802 0.99745 0.996782 0.996019 0.995163 0.994224 0.993212 0.992139 0.991022 0.989874 0.98871 0.987543 0.986386 0.985248 0.984137 0.983057 0.982013 0.981005 0.980033 0.979095 0.978189 0.977312 0.976461 0.975632 0.974824 0.974033 0.973258 0.972496 0.971746 0.971007 0.970278 0.969557 0.968844 0.968138 0.967439 0.966745 0.966057 0.965374 0.964694 0.964019 0.963347 0.962678 0.962012 0.961348 0.960687 0.960027 0.959368 0.95871 0.958053 0.957396 0.95674 0.956083 0.955427 0.954769 0.95411 0.95345 0.952789 0.952126 0.95146 0.950792 0.950122 0.949448 0.948771 0.94809 0.947405 0.946716 0.946022 0.945322 0.944617 0.943906 0.943188 0.942463 0.941731 0.94099 0.940241 0.939482 0.938713 0.937933 0.937142 0.936338 0.93552 0.934688 0.93384 0.932976 0.932093 0.93119 0.930266 0.929319 0.928347 0.927348 0.92632 0.925259 0.924164 0.923031 0.921856 0.920637 0.91937 0.918051 0.916676 0.91524 0.913743 0.912185 0.910555 0.908859 0.907127 0.905344 0.903518 0.901714 0.899938 0.898213 0.89664 0.89664 
1.09173 1.0918 1.09178 1.09173 1.0917 1.09174 1.09168 1.0916 1.0916 1.09156 1.0915 1.09146 1.09142 1.09137 1.09132 1.09128 1.09123 1.09119 1.09114 1.09111 1.09105 1.09102 1.09096 1.09093 1.09087 1.09085 1.09078 1.09077 1.0907 1.09068 1.09062 1.09061 1.09054 1.09053 1.09046 1.09046 1.09039 1.09038 1.09032 1.09031 1.09025 1.09024 1.09019 1.09017 1.09012 1.0901 1.09005 1.09003 1.08999 1.08996 1.08992 1.08989 1.08985 1.08982 1.08978 1.08975 1.08971 1.08968 1.08964 1.0896 1.08956 1.08953 1.08949 1.08945 1.0894 1.08936 1.08932 1.08928 1.08923 1.08918 1.08914 1.08909 1.08903 1.08898 1.08893 1.08887 1.08881 1.08875 1.08868 1.08861 1.08854 1.08847 1.08839 1.0883 1.08821 1.08812 1.08802 1.08791 1.08779 1.08766 1.08752 1.08737 1.0872 1.08701 1.0868 1.08656 1.08627 1.08593 1.08552 1.085 1.08433 1.08348 1.08239 1.08101 1.07928 1.07713 1.07448 1.07121 1.06719 1.06228 1.05638 1.04953 1.04198 1.03416 1.02664 1.01989 1.01425 1.00982 1.00653 1.0042 1.00262 1.00159 1.00094 1.00054 1.0003 1.00016 1.00009 1.00004 1.00002 1.00001 1 0.999994 0.999987 0.999975 0.999958 0.99993 0.999887 0.999824 0.999732 0.999602 0.999424 0.999186 0.998879 0.998492 0.998016 0.997446 0.996779 0.996016 0.995162 0.994225 0.993216 0.992148 0.991035 0.989892 0.988734 0.987573 0.986421 0.985288 0.984181 0.983105 0.982064 0.981058 0.980087 0.97915 0.978244 0.977367 0.976515 0.975686 0.974877 0.974086 0.97331 0.972547 0.971796 0.971057 0.970327 0.969605 0.968892 0.968185 0.967485 0.966791 0.966102 0.965419 0.964739 0.964063 0.963391 0.962722 0.962055 0.961391 0.960729 0.960069 0.95941 0.958752 0.958095 0.957438 0.956782 0.956125 0.955468 0.954811 0.954152 0.953492 0.952831 0.952168 0.951503 0.950835 0.950165 0.949491 0.948815 0.948135 0.94745 0.946762 0.946068 0.94537 0.944666 0.943956 0.943239 0.942516 0.941785 0.941047 0.9403 0.939543 0.938777 0.938 0.937212 0.936412 0.935599 0.934772 0.933929 0.933071 0.932195 0.9313 0.930386 0.929449 0.928489 0.927503 0.926491 0.925448 0.924374 0.923265 0.922119 0.920933 0.919704 0.918429 0.917107 0.915735 0.914308 0.912832 0.911308 0.909729 0.908109 0.906469 0.904806 0.903143 0.901512 0.899927 0.898458 0.898458 
1.09173 1.09166 1.09164 1.09164 1.09165 1.09161 1.09156 1.09155 1.09152 1.09147 1.09143 1.0914 1.09135 1.09131 1.09126 1.09123 1.09118 1.09115 1.09109 1.09106 1.09101 1.09098 1.09092 1.0909 1.09083 1.09081 1.09075 1.09073 1.09067 1.09066 1.09059 1.09058 1.09051 1.09051 1.09044 1.09043 1.09037 1.09036 1.0903 1.09029 1.09023 1.09022 1.09016 1.09015 1.0901 1.09008 1.09003 1.09001 1.08996 1.08994 1.08989 1.08986 1.08983 1.08979 1.08976 1.08972 1.08968 1.08965 1.08961 1.08957 1.08953 1.08949 1.08945 1.08941 1.08937 1.08933 1.08928 1.08924 1.08919 1.08914 1.0891 1.08904 1.08899 1.08894 1.08888 1.08882 1.08876 1.0887 1.08863 1.08856 1.08848 1.0884 1.08832 1.08823 1.08814 1.08804 1.08793 1.08782 1.08769 1.08756 1.08741 1.08725 1.08707 1.08687 1.08665 1.08639 1.08609 1.08573 1.08529 1.08474 1.08405 1.08318 1.08208 1.08071 1.07901 1.07693 1.07439 1.07128 1.06745 1.06275 1.05705 1.05036 1.0429 1.03509 1.02748 1.0206 1.0148 1.01023 1.00681 1.00439 1.00274 1.00166 1.00098 1.00056 1.00031 1.00017 1.00009 1.00005 1.00002 1.00001 1 0.999995 0.999987 0.999976 0.999958 0.99993 0.999888 0.999825 0.999733 0.999603 0.999425 0.999188 0.998882 0.998495 0.99802 0.997451 0.996785 0.996024 0.995172 0.994238 0.993233 0.992169 0.99106 0.989922 0.988769 0.987613 0.986466 0.985337 0.984234 0.983162 0.982123 0.981119 0.980149 0.979213 0.978307 0.977429 0.976577 0.975747 0.974937 0.974145 0.973368 0.972604 0.971853 0.971113 0.970382 0.96966 0.968945 0.968238 0.967538 0.966843 0.966154 0.96547 0.96479 0.964113 0.963441 0.962771 0.962105 0.96144 0.960778 0.960117 0.959458 0.9588 0.958143 0.957486 0.956829 0.956173 0.955516 0.954858 0.9542 0.95354 0.952879 0.952216 0.951551 0.950884 0.950214 0.949541 0.948865 0.948186 0.947502 0.946814 0.946122 0.945424 0.944721 0.944013 0.943298 0.942576 0.941847 0.941111 0.940366 0.939612 0.938849 0.938075 0.937291 0.936494 0.935686 0.934864 0.934027 0.933175 0.932307 0.93142 0.930515 0.929589 0.928641 0.927669 0.926672 0.925648 0.924594 0.923509 0.92239 0.921236 0.920044 0.918812 0.917539 0.916224 0.914865 0.913461 0.912019 0.910542 0.90903 0.907498 0.905959 0.904421 0.902904 0.901427 0.900044 0.900044 
1.09156 1.09156 1.09157 1.09156 1.09154 1.09151 1.0915 1.09147 1.09143 1.0914 1.09137 1.09133 1.09128 1.09125 1.09121 1.09117 1.09113 1.0911 1.09105 1.09102 1.09096 1.09094 1.09088 1.09086 1.0908 1.09078 1.09072 1.0907 1.09064 1.09063 1.09056 1.09055 1.09048 1.09048 1.09041 1.09041 1.09034 1.09033 1.09027 1.09026 1.0902 1.09019 1.09014 1.09012 1.09007 1.09005 1.09 1.08998 1.08994 1.08991 1.08987 1.08984 1.0898 1.08977 1.08973 1.08969 1.08965 1.08962 1.08958 1.08954 1.0895 1.08946 1.08942 1.08938 1.08934 1.08929 1.08925 1.0892 1.08915 1.0891 1.08905 1.089 1.08895 1.08889 1.08883 1.08877 1.08871 1.08864 1.08857 1.0885 1.08842 1.08834 1.08826 1.08816 1.08807 1.08796 1.08785 1.08773 1.0876 1.08746 1.08731 1.08714 1.08695 1.08674 1.0865 1.08623 1.08591 1.08552 1.08506 1.08449 1.08377 1.08289 1.08178 1.08042 1.07877 1.07676 1.07433 1.07136 1.06771 1.06321 1.05771 1.05118 1.0438 1.03599 1.02831 1.02129 1.01535 1.01062 1.00709 1.00457 1.00286 1.00173 1.00102 1.00059 1.00033 1.00018 1.00009 1.00005 1.00002 1.00001 1 0.999995 0.999987 0.999976 0.999959 0.999931 0.999889 0.999826 0.999735 0.999606 0.99943 0.999194 0.998889 0.998504 0.998031 0.997464 0.9968 0.996042 0.995193 0.994263 0.993261 0.992201 0.991098 0.989965 0.988816 0.987665 0.986522 0.985397 0.984297 0.983228 0.982191 0.981188 0.980219 0.979283 0.978377 0.977499 0.976646 0.975815 0.975004 0.974211 0.973433 0.972668 0.971916 0.971175 0.970443 0.96972 0.969005 0.968298 0.967597 0.966901 0.966212 0.965527 0.964846 0.96417 0.963497 0.962827 0.96216 0.961495 0.960832 0.960172 0.959512 0.958854 0.958197 0.95754 0.956883 0.956226 0.955569 0.954912 0.954254 0.953594 0.952933 0.95227 0.951606 0.950939 0.950269 0.949597 0.948922 0.948243 0.94756 0.946873 0.946182 0.945485 0.944784 0.944076 0.943363 0.942643 0.941916 0.941182 0.940439 0.939688 0.938928 0.938157 0.937377 0.936585 0.935781 0.934964 0.934133 0.933288 0.932427 0.931549 0.930653 0.929738 0.928802 0.927844 0.926862 0.925856 0.924822 0.92376 0.922668 0.921545 0.920387 0.919196 0.917968 0.916704 0.915404 0.914069 0.9127 0.911304 0.909885 0.908447 0.907004 0.905566 0.904144 0.902756 0.901443 0.901443 