# vtk DataFile Version 3.0
LBM simulation at step 290
ASCII
DATASET STRUCTURED_POINTS
DIMENSIONS 256 256 1
ORIGIN 0 0 0
SPACING 1 1 1
POINT_DATA 65536
SCALARS density float
LOOKUP_TABLE default
0.74194 1.08868 1.13542 1.09311 1.08485 1.09363 1.09535 1.09348 1.09283 1.09292 1.09283 1.09262 1.09246 1.09235 1.09225 1.09216 1.09208 1.09201 1.09195 1.09189 1.09184 1.0918 1.09175 1.09171 1.09167 1.09164 1.0916 1.09157 1.09153 1.0915 1.09147 1.09144 1.09141 1.09138 1.09135 1.09133 1.0913 1.09128 1.09125 1.09123 1.09121 1.09118 1.09116 1.09114 1.09112 1.0911 1.09108 1.09106 1.09104 1.09102 1.091 1.09099 1.09097 1.09095 1.09093 1.09092 1.0909 1.09088 1.09087 1.09085 1.09083 1.09082 1.0908 1.09079 1.09077 1.09076 1.09074 1.09073 1.09071 1.0907 1.09068 1.09067 1.09065 1.09064 1.09062 1.0906 1.09058 1.09056 1.09053 1.0905 1.09046 1.0904 1.09033 1.09024 1.09013 1.08998 1.0898 1.08957 1.0893 1.08897 1.08858 1.08812 1.0876 1.08701 1.08635 1.08564 1.08486 1.08403 1.08316 1.08226 1.08132 1.08037 1.07941 1.07845 1.07749 1.07655 1.07563 1.07472 1.07384 1.07299 1.07216 1.07135 1.07057 1.06982 1.06908 1.06837 1.06768 1.067 1.06633 1.06568 1.06504 1.06441 1.06379 1.06318 1.06258 1.06198 1.0614 1.06081 1.06024 1.05967 1.0591 1.05854 1.05799 1.05743 1.05688 1.05634 1.0558 1.05526 1.05472 1.05419 1.05366 1.05313 1.05261 1.05208 1.05156 1.05104 1.05052 1.05001 1.04949 1.04899 1.04848 1.04798 1.04749 1.04702 1.04655 1.0461 1.04566 1.04523 1.0448 1.04433 1.04377 1.04307 1.0421 1.04072 1.03876 1.03602 1.03229 1.02745 1.02144 1.01437 1.00648 0.998176 0.9899 0.98209 0.975082 0.96907 0.964107 0.960137 0.957032 0.95464 0.952807 0.951395 0.950292 0.949408 0.948676 0.948048 0.947487 0.946971 0.946482 0.946009 0.945546 0.945087 0.944629 0.944171 0.943712 0.94325 0.942786 0.942318 0.941846 0.941371 0.940891 0.940408 0.93992 0.939427 0.938929 0.938426 0.937917 0.937402 0.936881 0.936354 0.93582 0.935278 0.934728 0.93417 0.933604 0.933028 0.932442 0.931846 0.931239 0.930619 0.929987 0.92934 0.928679 0.928003 0.927308 0.926596 0.925863 0.925109 0.924331 0.923527 0.922695 0.921831 0.920934 0.919998 0.91902 0.917996 0.916918 0.91578 0.914575 0.913292 0.91192 0.910443 0.908844 0.907098 0.905175 0.903041 0.900644 0.897868 0.894608 0.890941 0.886498 0.879284 0.869827 0.864796 0.843103 0.689029 
1.13177 1.06508 1.06012 1.09526 1.09867 1.09314 1.09221 1.09329 1.09335 1.09294 1.09272 1.09261 1.09249 1.09236 1.09226 1.09217 1.09209 1.09202 1.09195 1.0919 1.09184 1.0918 1.09175 1.09171 1.09167 1.09163 1.09159 1.09156 1.09153 1.0915 1.09146 1.09144 1.0914 1.09138 1.09135 1.09132 1.09129 1.09127 1.09125 1.09123 1.0912 1.09118 1.09115 1.09114 1.09111 1.0911 1.09107 1.09106 1.09103 1.09102 1.091 1.09098 1.09096 1.09094 1.09093 1.09091 1.09089 1.09088 1.09086 1.09084 1.09083 1.09081 1.0908 1.09078 1.09076 1.09075 1.09073 1.09072 1.0907 1.09069 1.09067 1.09066 1.09064 1.09063 1.09061 1.09059 1.09057 1.09055 1.09052 1.09048 1.09044 1.09038 1.09031 1.09022 1.0901 1.08995 1.08976 1.08953 1.08924 1.0889 1.08851 1.08805 1.08752 1.08692 1.08627 1.08555 1.08477 1.08395 1.08308 1.08218 1.08125 1.0803 1.07935 1.07839 1.07744 1.0765 1.07558 1.07468 1.0738 1.07295 1.07213 1.07132 1.07055 1.06979 1.06906 1.06835 1.06765 1.06697 1.06631 1.06565 1.06501 1.06438 1.06376 1.06315 1.06255 1.06195 1.06136 1.06078 1.0602 1.05963 1.05907 1.0585 1.05795 1.05739 1.05684 1.0563 1.05575 1.05521 1.05468 1.05414 1.05361 1.05308 1.05255 1.05202 1.0515 1.05097 1.05045 1.04993 1.04942 1.0489 1.04839 1.04789 1.04739 1.0469 1.04643 1.04596 1.0455 1.04503 1.04455 1.04402 1.04339 1.04259 1.04152 1.04005 1.03801 1.03525 1.0316 1.02694 1.02123 1.01452 1.00702 0.999051 0.991004 0.983292 0.976261 0.970137 0.965013 0.960866 0.957594 0.955057 0.953106 0.951603 0.950431 0.949497 0.94873 0.948077 0.9475 0.946972 0.946476 0.945998 0.945531 0.94507 0.944611 0.944152 0.943692 0.943229 0.942764 0.942295 0.941823 0.941347 0.940867 0.940382 0.939893 0.9394 0.938901 0.938397 0.937887 0.937371 0.936849 0.93632 0.935785 0.935242 0.934691 0.934131 0.933563 0.932986 0.932398 0.9318 0.93119 0.930568 0.929933 0.929284 0.92862 0.92794 0.927243 0.926526 0.92579 0.925031 0.924248 0.923438 0.9226 0.92173 0.920825 0.919881 0.918893 0.917858 0.916768 0.915617 0.914395 0.913094 0.9117 0.910197 0.908567 0.906786 0.904822 0.902623 0.900141 0.897337 0.894047 0.889829 0.884789 0.879915 0.871842 0.848936 0.826384 0.826384 
1.14103 1.06922 1.07804 1.09761 1.09452 1.09193 1.09294 1.09349 1.09311 1.09283 1.09273 1.09262 1.09248 1.09236 1.09226 1.09217 1.09208 1.09201 1.09195 1.09189 1.09184 1.09179 1.09174 1.09171 1.09166 1.09163 1.09159 1.09156 1.09152 1.09149 1.09146 1.09143 1.0914 1.09137 1.09134 1.09132 1.09129 1.09127 1.09124 1.09122 1.09119 1.09118 1.09115 1.09113 1.09111 1.09109 1.09107 1.09105 1.09103 1.09101 1.09099 1.09097 1.09095 1.09094 1.09092 1.0909 1.09088 1.09087 1.09085 1.09084 1.09082 1.0908 1.09079 1.09077 1.09076 1.09074 1.09073 1.09071 1.0907 1.09068 1.09067 1.09065 1.09063 1.09062 1.0906 1.09058 1.09056 1.09054 1.09051 1.09047 1.09042 1.09037 1.09029 1.09019 1.09007 1.08992 1.08972 1.08949 1.0892 1.08886 1.08845 1.08798 1.08745 1.08685 1.08619 1.08547 1.08469 1.08387 1.083 1.0821 1.08117 1.08023 1.07928 1.07833 1.07738 1.07645 1.07554 1.07464 1.07377 1.07292 1.07209 1.0713 1.07052 1.06977 1.06903 1.06832 1.06763 1.06695 1.06628 1.06563 1.06499 1.06436 1.06374 1.06312 1.06252 1.06192 1.06133 1.06075 1.06017 1.0596 1.05903 1.05847 1.05791 1.05735 1.0568 1.05625 1.05571 1.05517 1.05463 1.05409 1.05355 1.05302 1.05249 1.05196 1.05143 1.05091 1.05038 1.04986 1.04933 1.04881 1.0483 1.04779 1.04728 1.04678 1.04628 1.04579 1.0453 1.0448 1.04427 1.04368 1.04298 1.0421 1.04096 1.03942 1.03737 1.03464 1.03109 1.02663 1.02119 1.0148 1.00763 0.99993 0.992064 0.984424 0.977361 0.971129 0.965854 0.961544 0.958118 0.955447 0.953387 0.951799 0.950563 0.949583 0.948784 0.948108 0.947515 0.946977 0.946473 0.945991 0.945521 0.945058 0.944598 0.944138 0.943677 0.943213 0.942747 0.942278 0.941805 0.941329 0.940848 0.940363 0.939874 0.939379 0.93888 0.938375 0.937864 0.937348 0.936825 0.936296 0.935759 0.935215 0.934663 0.934103 0.933533 0.932955 0.932366 0.931766 0.931155 0.930532 0.929895 0.929245 0.928579 0.927897 0.927197 0.926479 0.92574 0.924978 0.924192 0.92338 0.922539 0.921665 0.920756 0.919808 0.918817 0.917777 0.916682 0.915525 0.914298 0.912991 0.911591 0.910083 0.908448 0.906662 0.904698 0.902515 0.900038 0.897213 0.894069 0.890321 0.885188 0.879558 0.875751 0.866473 0.850677 0.850677 
1.05771 1.09363 1.10648 1.08883 1.08867 1.09398 1.09409 1.09285 1.09273 1.09288 1.09276 1.09257 1.09244 1.09235 1.09225 1.09215 1.09207 1.092 1.09194 1.09188 1.09183 1.09178 1.09174 1.0917 1.09165 1.09162 1.09158 1.09155 1.09151 1.09149 1.09145 1.09143 1.09139 1.09137 1.09133 1.09132 1.09128 1.09126 1.09123 1.09122 1.09119 1.09117 1.09114 1.09113 1.0911 1.09108 1.09106 1.09104 1.09102 1.09101 1.09098 1.09097 1.09095 1.09093 1.09091 1.0909 1.09088 1.09086 1.09084 1.09083 1.09081 1.0908 1.09078 1.09076 1.09075 1.09073 1.09072 1.0907 1.09069 1.09067 1.09066 1.09064 1.09062 1.09061 1.09059 1.09057 1.09055 1.09053 1.0905 1.09046 1.09041 1.09035 1.09027 1.09018 1.09005 1.08989 1.0897 1.08945 1.08916 1.08881 1.08841 1.08793 1.0874 1.0868 1.08613 1.08541 1.08463 1.0838 1.08293 1.08203 1.08111 1.08017 1.07922 1.07827 1.07733 1.0764 1.07549 1.0746 1.07373 1.07288 1.07206 1.07127 1.07049 1.06974 1.06901 1.0683 1.0676 1.06692 1.06626 1.0656 1.06496 1.06433 1.06371 1.0631 1.06249 1.0619 1.0613 1.06072 1.06014 1.05957 1.059 1.05843 1.05787 1.05732 1.05676 1.05621 1.05567 1.05512 1.05458 1.05404 1.0535 1.05297 1.05243 1.0519 1.05137 1.05084 1.05031 1.04978 1.04925 1.04872 1.0482 1.04768 1.04716 1.04665 1.04613 1.04562 1.04511 1.04457 1.044 1.04336 1.0426 1.04167 1.04047 1.03889 1.03682 1.03412 1.03067 1.02637 1.02115 1.01504 1.00816 1.00071 0.993031 0.985479 0.978408 0.972091 0.966683 0.962221 0.958647 0.955845 0.953677 0.952004 0.950704 0.949677 0.948844 0.948144 0.947535 0.946987 0.946476 0.945989 0.945516 0.945051 0.944589 0.944128 0.943666 0.943203 0.942736 0.942267 0.941794 0.941317 0.940836 0.94035 0.93986 0.939366 0.938866 0.93836 0.93785 0.937333 0.936809 0.936279 0.935742 0.935198 0.934645 0.934084 0.933515 0.932935 0.932346 0.931746 0.931134 0.93051 0.929873 0.929222 0.928555 0.927873 0.927173 0.926453 0.925714 0.924952 0.924165 0.923353 0.922511 0.921637 0.920729 0.919781 0.918791 0.917752 0.916659 0.915506 0.914283 0.912983 0.911592 0.910097 0.908481 0.906721 0.904788 0.90266 0.900304 0.897596 0.894446 0.891132 0.887473 0.88162 0.874803 0.872302 0.869377 0.869377 
1.09731 1.0971 1.08952 1.08959 1.09461 1.09362 1.0924 1.09276 1.09303 1.09282 1.09261 1.09252 1.09243 1.09232 1.09222 1.09214 1.09206 1.09199 1.09192 1.09187 1.09182 1.09177 1.09172 1.09169 1.09164 1.09161 1.09157 1.09155 1.09151 1.09148 1.09144 1.09142 1.09138 1.09136 1.09133 1.09131 1.09127 1.09126 1.09122 1.09121 1.09118 1.09116 1.09113 1.09112 1.09109 1.09108 1.09105 1.09104 1.09101 1.091 1.09097 1.09096 1.09094 1.09093 1.0909 1.09089 1.09087 1.09086 1.09083 1.09082 1.0908 1.09079 1.09077 1.09076 1.09074 1.09072 1.09071 1.09069 1.09068 1.09066 1.09065 1.09063 1.09061 1.0906 1.09058 1.09056 1.09054 1.09051 1.09048 1.09045 1.0904 1.09034 1.09026 1.09016 1.09003 1.08987 1.08967 1.08943 1.08913 1.08878 1.08837 1.08789 1.08735 1.08675 1.08608 1.08535 1.08457 1.08374 1.08288 1.08198 1.08105 1.08012 1.07917 1.07823 1.07729 1.07636 1.07545 1.07456 1.0737 1.07285 1.07204 1.07124 1.07047 1.06972 1.06899 1.06828 1.06758 1.0669 1.06624 1.06558 1.06494 1.06431 1.06369 1.06307 1.06247 1.06187 1.06128 1.06069 1.06011 1.05954 1.05897 1.0584 1.05784 1.05728 1.05672 1.05617 1.05562 1.05508 1.05453 1.05399 1.05345 1.05291 1.05238 1.05184 1.0513 1.05077 1.05024 1.0497 1.04917 1.04864 1.04811 1.04758 1.04705 1.04653 1.046 1.04547 1.04493 1.04436 1.04375 1.04306 1.04226 1.04127 1.04001 1.03839 1.03631 1.03363 1.03027 1.02611 1.02111 1.01526 1.00865 1.00146 0.993957 0.986498 0.979428 0.973035 0.967503 0.962896 0.959178 0.956247 0.953971 0.952213 0.950849 0.949775 0.948908 0.948185 0.94756 0.947001 0.946483 0.945992 0.945516 0.945049 0.944586 0.944124 0.943662 0.943197 0.942731 0.942261 0.941788 0.941311 0.940829 0.940344 0.939854 0.939359 0.938859 0.938353 0.937842 0.937325 0.936802 0.936272 0.935735 0.93519 0.934637 0.934077 0.933507 0.932928 0.932338 0.931738 0.931127 0.930503 0.929866 0.929215 0.928549 0.927867 0.927168 0.92645 0.925711 0.924951 0.924166 0.923355 0.922516 0.921646 0.920741 0.919798 0.918813 0.917781 0.916697 0.915555 0.914346 0.913063 0.911695 0.910228 0.90865 0.906943 0.905083 0.903034 0.900793 0.898354 0.895534 0.892248 0.88916 0.886001 0.881002 0.877091 0.87547 0.87547 
1.09922 1.09238 1.09041 1.09503 1.09353 1.09181 1.09277 1.09317 1.0928 1.0926 1.09258 1.0925 1.09238 1.09228 1.09219 1.09211 1.09203 1.09197 1.09191 1.09186 1.0918 1.09176 1.09171 1.09168 1.09163 1.0916 1.09156 1.09154 1.0915 1.09147 1.09143 1.09141 1.09137 1.09136 1.09132 1.0913 1.09127 1.09125 1.09122 1.0912 1.09117 1.09116 1.09112 1.09111 1.09108 1.09107 1.09104 1.09103 1.091 1.09099 1.09096 1.09096 1.09093 1.09092 1.09089 1.09088 1.09086 1.09085 1.09082 1.09081 1.09079 1.09078 1.09076 1.09075 1.09073 1.09072 1.0907 1.09068 1.09067 1.09065 1.09064 1.09062 1.09061 1.09059 1.09057 1.09055 1.09053 1.0905 1.09047 1.09044 1.09039 1.09033 1.09025 1.09014 1.09002 1.08985 1.08965 1.0894 1.08911 1.08875 1.08833 1.08785 1.08731 1.0867 1.08603 1.0853 1.08452 1.08369 1.08283 1.08193 1.08101 1.08007 1.07913 1.07818 1.07725 1.07633 1.07542 1.07453 1.07367 1.07283 1.07201 1.07122 1.07045 1.0697 1.06897 1.06826 1.06756 1.06688 1.06622 1.06556 1.06492 1.06429 1.06367 1.06305 1.06245 1.06185 1.06125 1.06067 1.06009 1.05951 1.05894 1.05837 1.05781 1.05725 1.05669 1.05614 1.05559 1.05504 1.05449 1.05395 1.05341 1.05286 1.05232 1.05179 1.05125 1.05071 1.05017 1.04963 1.0491 1.04856 1.04802 1.04749 1.04695 1.04641 1.04587 1.04532 1.04475 1.04416 1.04351 1.04278 1.04192 1.04087 1.03957 1.03791 1.03582 1.03318 1.02989 1.02588 1.02108 1.01548 1.00913 1.00217 0.994846 0.987482 0.980418 0.973958 0.96831 0.963563 0.959705 0.956649 0.954267 0.952425 0.950998 0.949877 0.948976 0.94823 0.947589 0.947019 0.946494 0.945998 0.94552 0.945051 0.944587 0.944124 0.943661 0.943197 0.94273 0.94226 0.941787 0.94131 0.940829 0.940343 0.939853 0.939358 0.938858 0.938353 0.937842 0.937325 0.936802 0.936272 0.935735 0.935191 0.934639 0.934079 0.933509 0.93293 0.932342 0.931743 0.931132 0.930509 0.929873 0.929224 0.92856 0.927879 0.927182 0.926466 0.92573 0.924973 0.924192 0.923386 0.922551 0.921687 0.920789 0.919854 0.918879 0.917859 0.91679 0.915664 0.914477 0.91322 0.911884 0.910459 0.908932 0.90729 0.905521 0.903601 0.901484 0.899202 0.896811 0.894042 0.89081 0.888048 0.885413 0.882492 0.880557 0.880557 
1.09044 1.09291 1.09437 1.0932 1.09188 1.09295 1.09316 1.09265 1.09257 1.09264 1.09255 1.09241 1.09232 1.09224 1.09216 1.09208 1.09201 1.09195 1.09189 1.09184 1.09178 1.09174 1.0917 1.09166 1.09162 1.09159 1.09155 1.09153 1.09149 1.09146 1.09142 1.0914 1.09137 1.09135 1.09131 1.0913 1.09126 1.09125 1.09121 1.0912 1.09116 1.09115 1.09111 1.09111 1.09107 1.09107 1.09103 1.09103 1.09099 1.09099 1.09095 1.09095 1.09092 1.09091 1.09088 1.09088 1.09085 1.09084 1.09082 1.09081 1.09078 1.09077 1.09075 1.09074 1.09072 1.09071 1.09069 1.09068 1.09066 1.09064 1.09063 1.09061 1.0906 1.09058 1.09056 1.09054 1.09052 1.09049 1.09046 1.09043 1.09038 1.09031 1.09023 1.09013 1.09 1.08984 1.08964 1.08939 1.08908 1.08873 1.08831 1.08783 1.08728 1.08667 1.086 1.08527 1.08448 1.08366 1.08279 1.08189 1.08097 1.08003 1.07909 1.07815 1.07722 1.0763 1.0754 1.07451 1.07365 1.07281 1.07199 1.0712 1.07043 1.06968 1.06895 1.06824 1.06755 1.06687 1.0662 1.06555 1.06491 1.06427 1.06365 1.06304 1.06243 1.06183 1.06123 1.06065 1.06006 1.05949 1.05891 1.05834 1.05778 1.05722 1.05666 1.05611 1.05555 1.055 1.05445 1.05391 1.05336 1.05282 1.05228 1.05174 1.05119 1.05065 1.05011 1.04957 1.04903 1.04848 1.04794 1.04739 1.04685 1.0463 1.04574 1.04517 1.04458 1.04395 1.04326 1.04249 1.04158 1.04049 1.03914 1.03746 1.03536 1.03276 1.02956 1.02569 1.02108 1.01571 1.00959 1.00286 0.995705 0.988433 0.981379 0.974858 0.969099 0.964219 0.960226 0.957046 0.954561 0.952638 0.951147 0.94998 0.949047 0.948278 0.947622 0.947041 0.946509 0.946009 0.945528 0.945057 0.944592 0.944129 0.943666 0.943201 0.942735 0.942265 0.941792 0.941315 0.940834 0.940348 0.939858 0.939364 0.938864 0.938359 0.937849 0.937332 0.93681 0.93628 0.935744 0.9352 0.934649 0.934089 0.933521 0.932943 0.932356 0.931758 0.931149 0.930528 0.929894 0.929247 0.928585 0.927907 0.927213 0.926501 0.925769 0.925016 0.924241 0.92344 0.922613 0.921757 0.920869 0.919945 0.918983 0.917979 0.916928 0.915825 0.914664 0.913439 0.912143 0.910767 0.909302 0.907735 0.906056 0.904266 0.90234 0.900225 0.898005 0.895782 0.893258 0.890596 0.888318 0.886126 0.884344 0.884344 
1.09282 1.0931 1.09302 1.09233 1.09292 1.09309 1.09255 1.09255 1.09266 1.09255 1.09242 1.09235 1.09228 1.0922 1.09212 1.09205 1.09198 1.09192 1.09186 1.09182 1.09177 1.09173 1.09168 1.09165 1.09161 1.09158 1.09154 1.09151 1.09147 1.09145 1.09141 1.09139 1.09136 1.09134 1.0913 1.09129 1.09125 1.09124 1.0912 1.09119 1.09115 1.09114 1.09111 1.0911 1.09106 1.09106 1.09102 1.09102 1.09098 1.09098 1.09094 1.09094 1.09091 1.0909 1.09087 1.09087 1.09084 1.09083 1.09081 1.0908 1.09077 1.09076 1.09074 1.09073 1.09071 1.0907 1.09068 1.09067 1.09065 1.09064 1.09062 1.0906 1.09059 1.09057 1.09055 1.09053 1.09051 1.09049 1.09046 1.09042 1.09037 1.09031 1.09023 1.09012 1.08999 1.08983 1.08962 1.08937 1.08907 1.08871 1.08829 1.08781 1.08726 1.08665 1.08597 1.08524 1.08446 1.08363 1.08276 1.08186 1.08094 1.08001 1.07907 1.07813 1.0772 1.07628 1.07538 1.0745 1.07364 1.0728 1.07199 1.07119 1.07042 1.06968 1.06895 1.06824 1.06754 1.06686 1.06619 1.06554 1.0649 1.06426 1.06364 1.06302 1.06241 1.06181 1.06122 1.06063 1.06004 1.05947 1.05889 1.05832 1.05776 1.05719 1.05663 1.05608 1.05552 1.05497 1.05442 1.05387 1.05332 1.05278 1.05223 1.05169 1.05114 1.0506 1.05005 1.04951 1.04896 1.04841 1.04786 1.0473 1.04675 1.04618 1.04561 1.04502 1.0444 1.04374 1.04302 1.0422 1.04125 1.04012 1.03873 1.03704 1.03494 1.03238 1.02927 1.02553 1.0211 1.01594 1.01006 1.00353 0.996536 0.989354 0.982312 0.975733 0.96987 0.964861 0.960737 0.957438 0.954852 0.952848 0.951297 0.950085 0.94912 0.948328 0.947657 0.947066 0.946528 0.946023 0.945539 0.945067 0.944601 0.944138 0.943675 0.94321 0.942743 0.942274 0.941801 0.941324 0.940843 0.940358 0.939869 0.939375 0.938876 0.938371 0.937861 0.937345 0.936824 0.936295 0.93576 0.935217 0.934667 0.934108 0.933541 0.932965 0.932379 0.931783 0.931176 0.930558 0.929926 0.929282 0.928623 0.927949 0.927259 0.926551 0.925825 0.925078 0.924309 0.923516 0.922698 0.921851 0.920975 0.920065 0.919118 0.918132 0.917103 0.916025 0.914895 0.913706 0.912454 0.91113 0.90973 0.908246 0.906666 0.904983 0.903216 0.901341 0.899304 0.897232 0.895194 0.893043 0.890975 0.889123 0.887534 0.887534 
1.0934 1.09271 1.09251 1.09278 1.09292 1.09253 1.09254 1.09266 1.09252 1.09241 1.09237 1.09231 1.09222 1.09215 1.09208 1.09202 1.09195 1.0919 1.09184 1.0918 1.09175 1.09171 1.09167 1.09163 1.09159 1.09157 1.09153 1.0915 1.09146 1.09144 1.0914 1.09138 1.09134 1.09133 1.09129 1.09128 1.09124 1.09123 1.09119 1.09118 1.09114 1.09114 1.0911 1.09109 1.09105 1.09105 1.09101 1.09101 1.09097 1.09097 1.09093 1.09093 1.0909 1.0909 1.09086 1.09086 1.09083 1.09082 1.0908 1.09079 1.09076 1.09076 1.09073 1.09072 1.0907 1.09069 1.09067 1.09066 1.09064 1.09063 1.09061 1.0906 1.09058 1.09056 1.09054 1.09053 1.0905 1.09048 1.09045 1.09041 1.09036 1.0903 1.09022 1.09012 1.08999 1.08982 1.08962 1.08937 1.08906 1.0887 1.08828 1.0878 1.08725 1.08663 1.08596 1.08523 1.08444 1.08361 1.08275 1.08185 1.08093 1.08 1.07906 1.07813 1.0772 1.07628 1.07538 1.0745 1.07364 1.0728 1.07199 1.0712 1.07043 1.06968 1.06895 1.06824 1.06754 1.06686 1.06619 1.06554 1.06489 1.06426 1.06363 1.06301 1.06241 1.0618 1.06121 1.06062 1.06003 1.05945 1.05887 1.0583 1.05773 1.05717 1.05661 1.05605 1.05549 1.05494 1.05439 1.05384 1.05329 1.05274 1.05219 1.05164 1.05109 1.05054 1.04999 1.04944 1.04889 1.04833 1.04778 1.04721 1.04664 1.04607 1.04548 1.04486 1.04422 1.04353 1.04278 1.04192 1.04094 1.03976 1.03835 1.03664 1.03456 1.03204 1.02902 1.02541 1.02115 1.01619 1.01052 1.00419 0.997343 0.990246 0.983216 0.976585 0.970621 0.965489 0.961238 0.957823 0.955139 0.953057 0.951446 0.95019 0.949193 0.94838 0.947694 0.947094 0.946549 0.946041 0.945554 0.945081 0.944614 0.94415 0.943687 0.943223 0.942756 0.942287 0.941814 0.941338 0.940858 0.940373 0.939884 0.939391 0.938892 0.938389 0.937879 0.937364 0.936843 0.936316 0.935782 0.93524 0.934692 0.934135 0.933569 0.932995 0.932411 0.931817 0.931213 0.930597 0.929969 0.929328 0.928673 0.928003 0.927318 0.926615 0.925895 0.925155 0.924393 0.923609 0.922801 0.921966 0.921102 0.920207 0.919278 0.918313 0.917306 0.916256 0.915159 0.914009 0.912802 0.911533 0.910197 0.908791 0.907312 0.905747 0.904098 0.902398 0.900622 0.898752 0.896901 0.895083 0.893286 0.891624 0.890186 0.890186 
1.09248 1.09264 1.0927 1.0927 1.09253 1.09251 1.0926 1.09248 1.09239 1.09237 1.09232 1.09223 1.09217 1.09211 1.09204 1.09198 1.09192 1.09187 1.09182 1.09177 1.09173 1.09169 1.09165 1.09162 1.09158 1.09155 1.09151 1.09149 1.09145 1.09143 1.09139 1.09137 1.09133 1.09132 1.09128 1.09127 1.09123 1.09122 1.09118 1.09117 1.09113 1.09113 1.09109 1.09108 1.09104 1.09104 1.091 1.091 1.09096 1.09096 1.09092 1.09092 1.09089 1.09089 1.09085 1.09085 1.09082 1.09082 1.09079 1.09078 1.09075 1.09075 1.09072 1.09071 1.09069 1.09068 1.09066 1.09065 1.09063 1.09062 1.0906 1.09059 1.09057 1.09056 1.09054 1.09052 1.0905 1.09048 1.09045 1.09041 1.09036 1.0903 1.09022 1.09012 1.08999 1.08983 1.08962 1.08937 1.08907 1.08871 1.08829 1.0878 1.08725 1.08664 1.08597 1.08523 1.08445 1.08362 1.08276 1.08186 1.08094 1.08001 1.07908 1.07814 1.07721 1.0763 1.0754 1.07452 1.07366 1.07282 1.07201 1.07122 1.07045 1.0697 1.06896 1.06825 1.06755 1.06687 1.0662 1.06554 1.0649 1.06426 1.06363 1.06301 1.0624 1.0618 1.0612 1.06061 1.06002 1.05944 1.05886 1.05829 1.05772 1.05715 1.05659 1.05603 1.05547 1.05491 1.05436 1.05381 1.05325 1.0527 1.05215 1.0516 1.05105 1.05049 1.04994 1.04938 1.04882 1.04826 1.04769 1.04712 1.04654 1.04595 1.04534 1.04471 1.04405 1.04333 1.04254 1.04165 1.04063 1.03943 1.03799 1.03627 1.03421 1.03174 1.0288 1.02532 1.02122 1.01645 1.01098 1.00483 0.998127 0.991111 0.984094 0.977412 0.971353 0.966102 0.961728 0.9582 0.95542 0.953262 0.951593 0.950295 0.949268 0.948434 0.947734 0.947124 0.946574 0.946061 0.945573 0.945098 0.944631 0.944166 0.943703 0.943239 0.942773 0.942304 0.941831 0.941356 0.940876 0.940392 0.939904 0.939411 0.938913 0.938411 0.937902 0.937388 0.936869 0.936342 0.935809 0.93527 0.934722 0.934167 0.933604 0.933032 0.93245 0.931859 0.931257 0.930644 0.93002 0.929383 0.928732 0.928067 0.927387 0.926691 0.925977 0.925244 0.924491 0.923717 0.92292 0.922097 0.921247 0.920368 0.919458 0.918513 0.917532 0.916511 0.915446 0.914335 0.913174 0.91196 0.910689 0.909356 0.907964 0.906513 0.904992 0.903413 0.901808 0.900161 0.89849 0.896862 0.895286 0.893788 0.892461 0.892461 
1.0925 1.09257 1.09255 1.0925 1.09247 1.09251 1.09244 1.09237 1.09236 1.09231 1.09223 1.09217 1.09212 1.09206 1.092 1.09194 1.09189 1.09184 1.09179 1.09175 1.09171 1.09167 1.09163 1.0916 1.09156 1.09153 1.0915 1.09147 1.09144 1.09141 1.09138 1.09136 1.09132 1.09131 1.09127 1.09126 1.09122 1.09121 1.09117 1.09116 1.09112 1.09112 1.09107 1.09107 1.09103 1.09103 1.09099 1.09099 1.09095 1.09095 1.09091 1.09092 1.09088 1.09088 1.09084 1.09084 1.09081 1.09081 1.09078 1.09077 1.09074 1.09074 1.09071 1.09071 1.09068 1.09067 1.09065 1.09064 1.09062 1.09061 1.09059 1.09058 1.09057 1.09055 1.09054 1.09052 1.0905 1.09048 1.09045 1.09042 1.09037 1.09031 1.09024 1.09014 1.09001 1.08985 1.08964 1.0894 1.08909 1.08873 1.08831 1.08783 1.08728 1.08667 1.086 1.08526 1.08448 1.08366 1.08279 1.0819 1.08098 1.08005 1.07912 1.07818 1.07725 1.07634 1.07544 1.07456 1.0737 1.07286 1.07205 1.07125 1.07048 1.06973 1.069 1.06828 1.06758 1.0669 1.06622 1.06556 1.06491 1.06428 1.06365 1.06302 1.06241 1.0618 1.0612 1.06061 1.06002 1.05943 1.05885 1.05828 1.0577 1.05714 1.05657 1.05601 1.05545 1.05489 1.05433 1.05378 1.05322 1.05267 1.05211 1.05156 1.051 1.05044 1.04988 1.04932 1.04876 1.04819 1.04761 1.04703 1.04644 1.04583 1.04521 1.04456 1.04387 1.04313 1.04231 1.04139 1.04034 1.03911 1.03766 1.03594 1.0339 1.03148 1.02862 1.02526 1.02131 1.01672 1.01143 1.00545 0.998889 0.991951 0.984947 0.978218 0.972067 0.966701 0.962208 0.95857 0.955697 0.953464 0.951739 0.950399 0.949343 0.948489 0.947775 0.947157 0.946601 0.946085 0.945594 0.945118 0.94465 0.944186 0.943723 0.943259 0.942793 0.942324 0.941852 0.941377 0.940898 0.940415 0.939928 0.939436 0.938939 0.938437 0.93793 0.937417 0.936898 0.936374 0.935842 0.935304 0.934759 0.934205 0.933644 0.933074 0.932496 0.931907 0.931309 0.930699 0.930078 0.929445 0.9288 0.92814 0.927466 0.926776 0.926069 0.925344 0.924601 0.923837 0.92305 0.922241 0.921406 0.920544 0.919652 0.91873 0.917773 0.916781 0.91575 0.914677 0.913561 0.912399 0.911189 0.909929 0.908617 0.907258 0.905856 0.904405 0.902923 0.901433 0.899934 0.898454 0.897027 0.895664 0.894434 0.894434 
1.0925 1.09244 1.09242 1.09242 1.09242 1.09238 1.09233 1.09232 1.09228 1.09222 1.09217 1.09212 1.09207 1.09201 1.09196 1.09191 1.09186 1.09181 1.09176 1.09172 1.09168 1.09165 1.09161 1.09158 1.09154 1.09152 1.09148 1.09146 1.09142 1.0914 1.09136 1.09135 1.09131 1.09129 1.09125 1.09124 1.0912 1.0912 1.09115 1.09115 1.09111 1.09111 1.09106 1.09106 1.09102 1.09102 1.09098 1.09098 1.09094 1.09094 1.0909 1.09091 1.09087 1.09087 1.09083 1.09083 1.0908 1.0908 1.09077 1.09076 1.09073 1.09073 1.0907 1.0907 1.09067 1.09067 1.09065 1.09064 1.09062 1.09061 1.09059 1.09058 1.09057 1.09056 1.09054 1.09053 1.09051 1.09049 1.09047 1.09044 1.09039 1.09034 1.09026 1.09017 1.09004 1.08989 1.08969 1.08944 1.08914 1.08879 1.08837 1.08789 1.08734 1.08673 1.08606 1.08533 1.08455 1.08373 1.08286 1.08197 1.08106 1.08013 1.0792 1.07826 1.07733 1.07642 1.07552 1.07464 1.07378 1.07294 1.07212 1.07132 1.07055 1.06979 1.06906 1.06834 1.06763 1.06694 1.06627 1.0656 1.06495 1.06431 1.06367 1.06305 1.06243 1.06182 1.06121 1.06061 1.06002 1.05943 1.05885 1.05827 1.0577 1.05713 1.05656 1.05599 1.05543 1.05487 1.05431 1.05375 1.05319 1.05263 1.05208 1.05152 1.05096 1.05039 1.04983 1.04926 1.04869 1.04812 1.04753 1.04694 1.04634 1.04572 1.04508 1.04441 1.0437 1.04293 1.04209 1.04114 1.04006 1.03881 1.03734 1.03563 1.03361 1.03124 1.02847 1.02522 1.02143 1.017 1.01189 1.00607 0.999631 0.992768 0.985776 0.979002 0.972763 0.967286 0.962676 0.958931 0.955968 0.953663 0.951883 0.950503 0.949419 0.948546 0.947819 0.947191 0.94663 0.946111 0.945618 0.945141 0.944673 0.944208 0.943745 0.943282 0.942816 0.942348 0.941877 0.941402 0.940924 0.940442 0.939955 0.939464 0.938968 0.938467 0.937961 0.93745 0.936933 0.936409 0.93588 0.935343 0.9348 0.934249 0.93369 0.933123 0.932547 0.931961 0.931366 0.93076 0.930144 0.929515 0.928874 0.92822 0.927552 0.926869 0.92617 0.925453 0.924719 0.923966 0.923191 0.922395 0.921575 0.92073 0.919858 0.918957 0.918026 0.917062 0.916063 0.915029 0.913956 0.912843 0.91169 0.910496 0.90926 0.907984 0.906674 0.905336 0.903971 0.902599 0.901232 0.899882 0.898572 0.897316 0.896166 0.896166 
1.09234 1.09234 1.09235 1.09233 1.09232 1.09229 1.09227 1.09224 1.09219 1.09215 1.09211 1.09206 1.09201 1.09197 1.09192 1.09187 1.09182 1.09178 1.09174 1.0917 1.09166 1.09163 1.09159 1.09156 1.09152 1.0915 1.09146 1.09144 1.0914 1.09138 1.09135 1.09133 1.09129 1.09128 1.09124 1.09123 1.09119 1.09118 1.09114 1.09114 1.0911 1.0911 1.09105 1.09105 1.09101 1.09101 1.09097 1.09097 1.09093 1.09094 1.09089 1.0909 1.09086 1.09086 1.09082 1.09082 1.09079 1.09079 1.09076 1.09076 1.09073 1.09072 1.0907 1.09069 1.09067 1.09066 1.09064 1.09064 1.09062 1.09061 1.0906 1.09059 1.09058 1.09057 1.09056 1.09055 1.09053 1.09052 1.0905 1.09047 1.09043 1.09038 1.09032 1.09023 1.09011 1.08996 1.08976 1.08952 1.08923 1.08888 1.08847 1.08799 1.08745 1.08685 1.08618 1.08545 1.08468 1.08385 1.08299 1.0821 1.08119 1.08026 1.07933 1.0784 1.07747 1.07655 1.07565 1.07477 1.0739 1.07306 1.07224 1.07144 1.07066 1.06989 1.06915 1.06843 1.06772 1.06702 1.06634 1.06567 1.06501 1.06436 1.06372 1.06309 1.06246 1.06185 1.06124 1.06063 1.06004 1.05945 1.05886 1.05828 1.0577 1.05712 1.05655 1.05598 1.05542 1.05485 1.05429 1.05373 1.05317 1.0526 1.05204 1.05148 1.05092 1.05035 1.04978 1.04921 1.04863 1.04805 1.04745 1.04685 1.04624 1.04561 1.04495 1.04426 1.04353 1.04274 1.04187 1.0409 1.03979 1.03852 1.03705 1.03535 1.03336 1.03104 1.02835 1.02521 1.02155 1.01729 1.01234 1.00667 1.00035 0.993562 0.986583 0.979766 0.973442 0.967857 0.963135 0.959286 0.956234 0.953859 0.952026 0.950607 0.949495 0.948603 0.947864 0.947228 0.946662 0.946139 0.945645 0.945167 0.944698 0.944234 0.943771 0.943308 0.942843 0.942375 0.941905 0.941431 0.940953 0.940472 0.939986 0.939496 0.939001 0.938502 0.937997 0.937487 0.936971 0.936449 0.935921 0.935387 0.934845 0.934297 0.93374 0.933176 0.932603 0.93202 0.931429 0.930827 0.930215 0.929591 0.928955 0.928307 0.927645 0.926969 0.926277 0.92557 0.924845 0.924102 0.92334 0.922557 0.921752 0.920924 0.920072 0.919193 0.918286 0.91735 0.916383 0.915385 0.914353 0.913287 0.912186 0.911051 0.909883 0.908684 0.907456 0.906208 0.904945 0.903674 0.902411 0.901166 0.899952 0.898783 0.897702 0.897702 
1.09225 1.09226 1.09226 1.09224 1.09223 1.09221 1.09219 1.09216 1.09213 1.09209 1.09205 1.09201 1.09197 1.09192 1.09188 1.09183 1.09179 1.09175 1.09171 1.09167 1.09164 1.0916 1.09157 1.09154 1.09151 1.09148 1.09145 1.09142 1.09139 1.09137 1.09133 1.09132 1.09128 1.09127 1.09123 1.09122 1.09118 1.09117 1.09113 1.09113 1.09108 1.09108 1.09104 1.09104 1.091 1.091 1.09096 1.09096 1.09092 1.09092 1.09088 1.09089 1.09085 1.09085 1.09081 1.09082 1.09078 1.09078 1.09075 1.09075 1.09072 1.09072 1.09069 1.09069 1.09067 1.09066 1.09064 1.09064 1.09062 1.09062 1.09061 1.09061 1.0906 1.0906 1.09059 1.09059 1.09058 1.09057 1.09056 1.09054 1.09051 1.09047 1.09041 1.09033 1.09022 1.09007 1.08989 1.08966 1.08937 1.08903 1.08863 1.08816 1.08763 1.08703 1.08637 1.08565 1.08488 1.08406 1.0832 1.08231 1.0814 1.08048 1.07954 1.07861 1.07768 1.07676 1.07585 1.07497 1.0741 1.07325 1.07242 1.07161 1.07082 1.07005 1.0693 1.06856 1.06785 1.06714 1.06645 1.06577 1.0651 1.06444 1.06379 1.06315 1.06252 1.0619 1.06128 1.06067 1.06007 1.05947 1.05888 1.05829 1.05771 1.05713 1.05655 1.05598 1.05541 1.05484 1.05427 1.05371 1.05314 1.05258 1.05201 1.05144 1.05088 1.05031 1.04973 1.04915 1.04857 1.04798 1.04738 1.04677 1.04614 1.04549 1.04482 1.04412 1.04337 1.04255 1.04166 1.04067 1.03954 1.03826 1.03679 1.03509 1.03313 1.03087 1.02826 1.02523 1.0217 1.01758 1.01278 1.00726 1.00106 0.994335 0.987369 0.980511 0.974105 0.968416 0.963585 0.959634 0.956496 0.954052 0.952167 0.950711 0.949572 0.948662 0.94791 0.947267 0.946695 0.94617 0.945674 0.945195 0.944726 0.944262 0.943799 0.943336 0.942872 0.942405 0.941935 0.941462 0.940986 0.940505 0.94002 0.939531 0.939038 0.938539 0.938036 0.937527 0.937013 0.936493 0.935967 0.935435 0.934895 0.934349 0.933795 0.933233 0.932663 0.932085 0.931497 0.930899 0.930291 0.929672 0.929042 0.928399 0.927744 0.927075 0.926391 0.925692 0.924978 0.924246 0.923495 0.922726 0.921936 0.921125 0.920291 0.919434 0.918551 0.917642 0.916706 0.915741 0.914748 0.913725 0.912674 0.911593 0.910485 0.909353 0.908199 0.907028 0.905848 0.904665 0.903488 0.902328 0.901194 0.900099 0.899076 0.899076 