# vtk DataFile Version 3.0
LBM simulation at step 250
ASCII
DATASET STRUCTURED_POINTS
DIMENSIONS 128 128 1
ORIGIN 0 0 0
SPACING 1 1 1
POINT_DATA 16384
SCALARS density float
LOOKUP_TABLE default
0.954053 1.01962 1.02125 1.0179 1.01807 1.01823 1.01806 1.01792 1.01783 1.01773 1.01763 1.01751 1.01739 1.01724 1.01708 1.01691 1.01672 1.01651 1.01629 1.01605 1.0158 1.01554 1.01528 1.01501 1.01473 1.01445 1.01418 1.0139 1.01362 1.01335 1.01308 1.01281 1.01254 1.01227 1.012 1.01173 1.01146 1.01117 1.01089 1.01059 1.01029 1.00997 1.00965 1.0093 1.00894 1.00856 1.00816 1.00772 1.00724 1.00672 1.00615 1.00552 1.00483 1.00406 1.00323 1.00232 1.00135 1.0003 0.999188 0.998025 0.996819 0.995584 0.994331 0.993074 0.991824 0.99059 0.98938 0.988198 0.987049 0.985931 0.984844 0.983786 0.982754 0.981743 0.98075 0.979772 0.978806 0.977849 0.976901 0.975959 0.975023 0.974093 0.97317 0.972253 0.971344 0.970444 0.969553 0.968673 0.967804 0.966947 0.966104 0.965274 0.964458 0.963656 0.962867 0.962093 0.96133 0.960578 0.959836 0.9591 0.958368 0.957637 0.956903 0.956162 0.955412 0.954649 0.953872 0.95308 0.952273 0.951455 0.950628 0.949799 0.948973 0.948156 0.947351 0.946561 0.945789 0.945031 0.944284 0.943545 0.942789 0.941996 0.941199 0.940698 0.93876 0.937222 0.953455 0.953455 
1.02167 1.02018 1.01631 1.01751 1.01831 1.0182 1.01801 1.0179 1.0178 1.01769 1.01759 1.01747 1.01735 1.01721 1.01705 1.01688 1.01669 1.01648 1.01626 1.01603 1.01578 1.01553 1.01526 1.01499 1.01472 1.01444 1.01416 1.01389 1.01361 1.01334 1.01307 1.0128 1.01253 1.01226 1.01199 1.01171 1.01144 1.01115 1.01086 1.01057 1.01026 1.00994 1.00961 1.00927 1.00891 1.00852 1.00811 1.00767 1.00719 1.00667 1.00609 1.00547 1.00478 1.00402 1.00319 1.00229 1.00132 1.00028 0.999184 0.998032 0.996836 0.995609 0.994363 0.993111 0.991863 0.990629 0.989417 0.988232 0.987078 0.985956 0.984864 0.983801 0.982765 0.98175 0.980755 0.979775 0.978808 0.977852 0.976904 0.975963 0.975029 0.974101 0.97318 0.972265 0.971359 0.97046 0.969571 0.968693 0.967826 0.966971 0.966129 0.9653 0.964485 0.963683 0.962895 0.96212 0.961357 0.960605 0.95986 0.959122 0.958388 0.957653 0.956915 0.95617 0.955415 0.954647 0.953865 0.953068 0.952257 0.951435 0.950607 0.949776 0.948949 0.948129 0.947322 0.946529 0.945749 0.944982 0.944223 0.94347 0.942709 0.941879 0.940894 0.940112 0.940553 0.941359 0.939179 0.939179 
1.02891 1.01699 1.01633 1.01879 1.01836 1.01792 1.0179 1.01788 1.01778 1.01766 1.01756 1.01745 1.01732 1.01718 1.01703 1.01686 1.01667 1.01647 1.01626 1.01603 1.01579 1.01553 1.01527 1.015 1.01473 1.01446 1.01418 1.0139 1.01363 1.01336 1.01308 1.01281 1.01254 1.01227 1.012 1.01173 1.01145 1.01116 1.01087 1.01057 1.01026 1.00994 1.00961 1.00926 1.0089 1.00851 1.00809 1.00765 1.00716 1.00664 1.00606 1.00543 1.00474 1.00399 1.00316 1.00227 1.00131 1.00028 0.999196 0.998055 0.99687 0.995653 0.994415 0.993167 0.991922 0.990688 0.989474 0.988285 0.987126 0.985998 0.9849 0.983831 0.982789 0.981771 0.980772 0.979791 0.978823 0.977867 0.97692 0.975981 0.975049 0.974124 0.973206 0.972295 0.971392 0.970497 0.969611 0.968736 0.967872 0.96702 0.96618 0.965354 0.964541 0.963741 0.962955 0.962181 0.961418 0.960666 0.959921 0.959182 0.958446 0.957709 0.956968 0.95622 0.955461 0.954689 0.953902 0.953101 0.952286 0.951461 0.95063 0.949797 0.948968 0.948147 0.947339 0.946544 0.945762 0.944994 0.944229 0.94345 0.94266 0.941911 0.941179 0.940211 0.939515 0.937555 0.931099 0.931099 
1.01371 1.01854 1.02053 1.01819 1.01751 1.01798 1.01802 1.01783 1.01772 1.01764 1.01754 1.01743 1.01731 1.01717 1.01702 1.01686 1.01668 1.01648 1.01627 1.01605 1.01581 1.01556 1.0153 1.01504 1.01477 1.0145 1.01422 1.01395 1.01368 1.0134 1.01313 1.01286 1.01259 1.01232 1.01205 1.01177 1.01149 1.01121 1.01091 1.01061 1.0103 1.00998 1.00964 1.00929 1.00892 1.00852 1.0081 1.00765 1.00716 1.00662 1.00604 1.00541 1.00472 1.00396 1.00314 1.00226 1.0013 1.00029 0.999212 0.998084 0.996912 0.995706 0.994478 0.993238 0.991997 0.990765 0.989549 0.988357 0.987193 0.986058 0.984953 0.983878 0.98283 0.981806 0.980804 0.97982 0.978851 0.977895 0.97695 0.976013 0.975085 0.974163 0.973249 0.972342 0.971443 0.970553 0.969672 0.968801 0.967942 0.967093 0.966258 0.965435 0.964625 0.963829 0.963045 0.962273 0.961512 0.96076 0.960016 0.959277 0.95854 0.957802 0.95706 0.956309 0.955547 0.954772 0.953982 0.953178 0.95236 0.951532 0.950699 0.949865 0.949036 0.948216 0.947409 0.946616 0.945836 0.945064 0.944303 0.943546 0.942761 0.941924 0.941162 0.940405 0.939271 0.937204 0.933142 0.933142 
1.01787 1.01904 1.01813 1.01768 1.01822 1.01809 1.01782 1.01776 1.01772 1.01763 1.01753 1.01742 1.01731 1.01718 1.01704 1.01688 1.0167 1.01651 1.01631 1.01609 1.01586 1.01561 1.01536 1.0151 1.01484 1.01457 1.0143 1.01403 1.01376 1.01348 1.01321 1.01294 1.01267 1.0124 1.01213 1.01185 1.01157 1.01128 1.01099 1.01069 1.01037 1.01005 1.00971 1.00935 1.00897 1.00857 1.00814 1.00767 1.00717 1.00663 1.00604 1.0054 1.00471 1.00395 1.00313 1.00225 1.0013 1.00029 0.99923 0.998116 0.996959 0.995767 0.994551 0.993321 0.992087 0.990858 0.989642 0.988447 0.987277 0.986136 0.985023 0.98394 0.982885 0.981856 0.980849 0.979862 0.978892 0.977936 0.976992 0.976058 0.975133 0.974216 0.973307 0.972406 0.971512 0.970628 0.969752 0.968887 0.968033 0.96719 0.96636 0.965542 0.964736 0.963944 0.963164 0.962395 0.961637 0.960887 0.960145 0.959407 0.95867 0.957932 0.957188 0.956436 0.955673 0.954895 0.954103 0.953296 0.952477 0.951648 0.950815 0.949981 0.949154 0.948337 0.947534 0.946746 0.945973 0.94521 0.94445 0.943692 0.942942 0.942167 0.941341 0.940411 0.938973 0.937741 0.936803 0.936803 
1.01876 1.01817 1.01773 1.01834 1.01818 1.01781 1.01781 1.01781 1.01771 1.01761 1.01753 1.01744 1.01733 1.01721 1.01707 1.01692 1.01675 1.01657 1.01637 1.01616 1.01593 1.0157 1.01545 1.0152 1.01494 1.01467 1.01441 1.01414 1.01387 1.0136 1.01333 1.01306 1.01279 1.01252 1.01225 1.01197 1.01169 1.0114 1.0111 1.0108 1.01048 1.01015 1.0098 1.00944 1.00905 1.00864 1.0082 1.00773 1.00722 1.00666 1.00606 1.00541 1.00471 1.00394 1.00312 1.00224 1.0013 1.0003 0.999254 0.998155 0.997014 0.995838 0.994635 0.993417 0.992191 0.990966 0.989751 0.988554 0.987378 0.986229 0.985109 0.984017 0.982954 0.981918 0.980906 0.979915 0.978943 0.977987 0.977044 0.976113 0.975192 0.974281 0.973377 0.972482 0.971595 0.970717 0.969849 0.968991 0.968143 0.967307 0.966483 0.965671 0.964872 0.964084 0.963309 0.962545 0.96179 0.961044 0.960304 0.959568 0.958833 0.958095 0.957352 0.9566 0.955835 0.955057 0.954264 0.953456 0.952636 0.951808 0.950975 0.950145 0.949322 0.948511 0.947715 0.946935 0.94617 0.945421 0.94468 0.943936 0.943188 0.942436 0.941629 0.94078 0.939718 0.93872 0.938226 0.938226 
1.01727 1.01807 1.01826 1.01811 1.01784 1.0179 1.01789 1.01777 1.01769 1.01764 1.01756 1.01747 1.01736 1.01725 1.01712 1.01698 1.01682 1.01665 1.01646 1.01625 1.01603 1.01581 1.01557 1.01532 1.01507 1.01481 1.01455 1.01428 1.01402 1.01375 1.01348 1.01322 1.01295 1.01267 1.0124 1.01212 1.01184 1.01155 1.01125 1.01094 1.01062 1.01029 1.00993 1.00956 1.00917 1.00874 1.00829 1.0078 1.00728 1.00671 1.0061 1.00543 1.00472 1.00395 1.00312 1.00225 1.00131 1.00032 0.999286 0.998202 0.997077 0.995917 0.99473 0.993524 0.992307 0.991088 0.989875 0.988675 0.987494 0.986338 0.985208 0.984107 0.983035 0.981991 0.980973 0.979978 0.979003 0.978046 0.977105 0.976177 0.97526 0.974353 0.973456 0.972568 0.971689 0.970819 0.969958 0.969108 0.968268 0.96744 0.966624 0.965819 0.965027 0.964246 0.963477 0.962718 0.961969 0.961227 0.960491 0.959759 0.959026 0.95829 0.957548 0.956797 0.956033 0.955255 0.954462 0.953655 0.952836 0.952009 0.95118 0.950354 0.949537 0.948733 0.947947 0.947179 0.946428 0.945692 0.944968 0.944252 0.943533 0.942806 0.942026 0.941223 0.940497 0.939718 0.939065 0.939065 
1.01744 1.01805 1.01806 1.01791 1.01793 1.01794 1.01783 1.01777 1.01773 1.01767 1.01759 1.01751 1.01742 1.01732 1.0172 1.01707 1.01692 1.01675 1.01657 1.01638 1.01617 1.01595 1.01572 1.01548 1.01523 1.01498 1.01472 1.01446 1.0142 1.01394 1.01367 1.01341 1.01314 1.01287 1.01259 1.01231 1.01203 1.01174 1.01143 1.01112 1.0108 1.01046 1.0101 1.00972 1.00931 1.00888 1.00841 1.00791 1.00737 1.00678 1.00615 1.00547 1.00475 1.00397 1.00314 1.00226 1.00133 1.00035 0.999325 0.998256 0.997148 0.996005 0.994834 0.993641 0.992434 0.991221 0.99001 0.988808 0.987623 0.986458 0.98532 0.984209 0.983127 0.982074 0.981048 0.980048 0.97907 0.978112 0.977171 0.976245 0.975333 0.974432 0.973541 0.97266 0.971789 0.970927 0.970076 0.969234 0.968404 0.967585 0.966777 0.965981 0.965197 0.964424 0.963663 0.962911 0.962168 0.961432 0.960702 0.959973 0.959245 0.958513 0.957773 0.957024 0.956262 0.955486 0.954694 0.953889 0.953073 0.952249 0.951425 0.950605 0.949796 0.949002 0.948227 0.947473 0.946739 0.946022 0.945318 0.944625 0.943934 0.943244 0.94255 0.941831 0.941174 0.940543 0.939919 0.939919 
1.01758 1.01796 1.01793 1.01795 1.01796 1.01788 1.01784 1.01782 1.01777 1.01771 1.01765 1.01759 1.01751 1.01741 1.01731 1.01718 1.01705 1.01689 1.01672 1.01654 1.01634 1.01613 1.0159 1.01567 1.01543 1.01519 1.01494 1.01468 1.01442 1.01416 1.0139 1.01363 1.01336 1.01309 1.01281 1.01254 1.01225 1.01195 1.01165 1.01134 1.01101 1.01066 1.01029 1.0099 1.00948 1.00903 1.00855 1.00803 1.00747 1.00687 1.00622 1.00553 1.00479 1.004 1.00317 1.00228 1.00136 1.00039 0.999372 0.998318 0.997226 0.9961 0.994945 0.993766 0.99257 0.991363 0.990155 0.988952 0.987761 0.986589 0.98544 0.984319 0.983227 0.982164 0.98113 0.980123 0.979141 0.978181 0.97724 0.976316 0.975407 0.974511 0.973627 0.972754 0.971891 0.971038 0.970196 0.969365 0.968544 0.967735 0.966937 0.966151 0.965377 0.964614 0.963861 0.963117 0.962382 0.961654 0.96093 0.960208 0.959484 0.958757 0.958022 0.957276 0.956518 0.955745 0.954956 0.954154 0.953342 0.952524 0.951705 0.950893 0.950094 0.949311 0.94855 0.947811 0.947094 0.946397 0.945717 0.945051 0.944392 0.943734 0.943096 0.942465 0.941841 0.941282 0.940762 0.940762 
1.01744 1.01795 1.01796 1.01796 1.01793 1.0179 1.0179 1.01786 1.01782 1.01778 1.01774 1.01768 1.01761 1.01753 1.01744 1.01733 1.0172 1.01706 1.0169 1.01673 1.01654 1.01634 1.01613 1.01591 1.01567 1.01543 1.01519 1.01493 1.01468 1.01442 1.01415 1.01389 1.01362 1.01335 1.01307 1.01279 1.0125 1.0122 1.0119 1.01158 1.01124 1.01089 1.01051 1.01011 1.00968 1.00921 1.00871 1.00817 1.0076 1.00697 1.00631 1.0056 1.00484 1.00404 1.0032 1.00232 1.00139 1.00043 0.999425 0.998385 0.997309 0.996199 0.99506 0.993895 0.992709 0.99151 0.990305 0.9891 0.987905 0.986725 0.985567 0.984435 0.983332 0.982258 0.981215 0.9802 0.979213 0.97825 0.977308 0.976386 0.97548 0.974589 0.973711 0.972845 0.971991 0.971148 0.970316 0.969494 0.968685 0.967886 0.967099 0.966324 0.965561 0.964808 0.964065 0.963331 0.962605 0.961886 0.96117 0.960455 0.959739 0.959018 0.958288 0.957548 0.956795 0.956026 0.955243 0.954446 0.953639 0.952828 0.952017 0.951214 0.950425 0.949656 0.948909 0.948187 0.947488 0.946812 0.946155 0.945513 0.944887 0.94427 0.943665 0.943085 0.942516 0.941987 0.941512 0.941512 
1.01747 1.01798 1.01798 1.01797 1.01796 1.01796 1.01794 1.01792 1.0179 1.01788 1.01784 1.0178 1.01775 1.01768 1.0176 1.01751 1.0174 1.01727 1.01712 1.01696 1.01678 1.01659 1.01639 1.01617 1.01594 1.01571 1.01547 1.01522 1.01496 1.01471 1.01444 1.01418 1.01391 1.01363 1.01335 1.01307 1.01278 1.01248 1.01217 1.01184 1.0115 1.01114 1.01075 1.01033 1.00989 1.00941 1.00889 1.00833 1.00773 1.00709 1.0064 1.00567 1.0049 1.00409 1.00324 1.00236 1.00143 1.00047 0.999481 0.998453 0.997392 0.996298 0.995173 0.994022 0.992847 0.991656 0.990454 0.989249 0.98805 0.986863 0.985695 0.984552 0.983437 0.982353 0.981299 0.980277 0.979283 0.978316 0.977373 0.976451 0.975547 0.974661 0.973789 0.97293 0.972084 0.971251 0.970428 0.969618 0.968819 0.968032 0.967257 0.966494 0.965742 0.965 0.964269 0.963546 0.962831 0.962121 0.961414 0.960709 0.960001 0.959288 0.958566 0.957833 0.957086 0.956324 0.955547 0.954757 0.953958 0.953154 0.952353 0.951561 0.950785 0.950029 0.949298 0.948592 0.947913 0.947257 0.946622 0.946005 0.945405 0.944822 0.94425 0.943698 0.943171 0.942667 0.942202 0.942202 
1.01754 1.01801 1.01802 1.01802 1.01803 1.01803 1.01802 1.01802 1.01801 1.01799 1.01798 1.01795 1.01791 1.01786 1.0178 1.01772 1.01762 1.01751 1.01737 1.01722 1.01706 1.01688 1.01668 1.01647 1.01625 1.01602 1.01578 1.01553 1.01528 1.01502 1.01475 1.01449 1.01421 1.01394 1.01366 1.01337 1.01307 1.01277 1.01245 1.01212 1.01177 1.0114 1.011 1.01057 1.0101 1.00961 1.00907 1.00849 1.00787 1.0072 1.0065 1.00575 1.00496 1.00414 1.00328 1.00239 1.00147 1.00052 0.999534 0.998517 0.99747 0.99639 0.99528 0.994142 0.992978 0.991794 0.990596 0.989392 0.988189 0.986996 0.985819 0.984665 0.983538 0.982442 0.981379 0.980347 0.979346 0.978374 0.977429 0.976507 0.975605 0.974722 0.973856 0.973005 0.972167 0.971342 0.97053 0.96973 0.968943 0.968168 0.967405 0.966654 0.965914 0.965185 0.964465 0.963754 0.963051 0.962352 0.961657 0.960962 0.960264 0.95956 0.958848 0.958124 0.957385 0.956632 0.955863 0.955082 0.954291 0.953498 0.952708 0.951928 0.951165 0.950424 0.949709 0.949021 0.948359 0.947723 0.94711 0.946516 0.945939 0.94538 0.944836 0.944308 0.943803 0.943318 0.942859 0.942859 
1.0176 1.01808 1.01809 1.0181 1.01811 1.01812 1.01812 1.01813 1.01814 1.01814 1.01814 1.01813 1.01811 1.01808 1.01803 1.01796 1.01788 1.01778 1.01766 1.01752 1.01737 1.01719 1.017 1.0168 1.01658 1.01635 1.01611 1.01587 1.01561 1.01535 1.01509 1.01481 1.01454 1.01426 1.01397 1.01368 1.01338 1.01307 1.01275 1.01241 1.01205 1.01166 1.01125 1.0108 1.01032 1.0098 1.00924 1.00864 1.008 1.00731 1.00658 1.00582 1.00502 1.00419 1.00332 1.00243 1.00151 1.00056 0.999578 0.998572 0.997536 0.99647 0.995373 0.994247 0.993094 0.991918 0.990725 0.989522 0.988316 0.987117 0.985931 0.984767 0.983629 0.982522 0.981447 0.980406 0.979398 0.978421 0.977472 0.976549 0.97565 0.97477 0.973909 0.973064 0.972234 0.971418 0.970616 0.969827 0.969051 0.968288 0.967537 0.966798 0.966071 0.965355 0.964648 0.96395 0.963259 0.962573 0.96189 0.961207 0.960521 0.959828 0.959127 0.958413 0.957685 0.956941 0.956183 0.955412 0.954633 0.953851 0.953073 0.952307 0.951558 0.950833 0.950134 0.949463 0.94882 0.948203 0.947608 0.947034 0.946479 0.945938 0.945415 0.944907 0.944415 0.943942 0.943489 0.943489 
1.0177 1.01817 1.01818 1.0182 1.01821 1.01823 1.01825 1.01828 1.0183 1.01832 1.01833 1.01834 1.01834 1.01832 1.01829 1.01824 1.01817 1.01809 1.01798 1.01785 1.0177 1.01754 1.01735 1.01715 1.01693 1.01671 1.01647 1.01622 1.01596 1.0157 1.01543 1.01515 1.01487 1.01459 1.0143 1.014 1.01369 1.01338 1.01304 1.01269 1.01232 1.01192 1.01149 1.01103 1.01053 1.00999 1.0094 1.00878 1.00811 1.00741 1.00666 1.00588 1.00506 1.00422 1.00335 1.00245 1.00153 1.00058 0.999608 0.998611 0.997586 0.996531 0.995447 0.994332 0.993189 0.992021 0.990832 0.989631 0.988423 0.987219 0.986026 0.984852 0.983704 0.982585 0.9815 0.98045 0.979434 0.978451 0.977499 0.976575 0.975676 0.974799 0.973943 0.973104 0.972282 0.971475 0.970682 0.969904 0.969139 0.968387 0.967649 0.966923 0.966208 0.965505 0.964812 0.964127 0.96345 0.962777 0.962107 0.961437 0.960764 0.960084 0.959395 0.958693 0.957977 0.957245 0.956499 0.95574 0.954974 0.954205 0.953441 0.95269 0.951956 0.951247 0.950565 0.949912 0.949286 0.948686 0.948109 0.947553 0.947014 0.94649 0.945982 0.945487 0.945006 0.944539 0.944088 0.944088 
1.01782 1.01828 1.0183 1.01832 1.01835 1.01838 1.01841 1.01845 1.01848 1.01852 1.01855 1.01858 1.01859 1.0186 1.01858 1.01855 1.0185 1.01842 1.01832 1.0182 1.01806 1.0179 1.01772 1.01752 1.0173 1.01707 1.01683 1.01658 1.01632 1.01605 1.01577 1.01549 1.01521 1.01492 1.01462 1.01432 1.014 1.01368 1.01333 1.01297 1.01258 1.01217 1.01172 1.01124 1.01071 1.01015 1.00955 1.0089 1.00821 1.00748 1.00672 1.00592 1.00509 1.00423 1.00335 1.00245 1.00153 1.00058 0.999618 0.998628 0.997612 0.996568 0.995494 0.99439 0.993256 0.992095 0.990912 0.989712 0.988504 0.987296 0.986096 0.984914 0.983755 0.982627 0.981531 0.980472 0.979449 0.97846 0.977504 0.976579 0.975681 0.974807 0.973955 0.973122 0.972307 0.971509 0.970726 0.969957 0.969203 0.968463 0.967736 0.967023 0.966321 0.965631 0.964951 0.96428 0.963616 0.962958 0.962302 0.961645 0.960986 0.96032 0.959645 0.958957 0.958255 0.957537 0.956804 0.95606 0.955307 0.954553 0.953805 0.953069 0.952352 0.951659 0.950994 0.950358 0.949748 0.949165 0.948604 0.948062 0.947537 0.947027 0.94653 0.946044 0.94557 0.945107 0.944656 0.944656 
1.01797 1.01842 1.01844 1.01847 1.0185 1.01854 1.01859 1.01864 1.0187 1.01875 1.0188 1.01885 1.01888 1.0189 1.0189 1.01889 1.01884 1.01878 1.01869 1.01858 1.01844 1.01828 1.01809 1.01789 1.01768 1.01744 1.0172 1.01694 1.01667 1.0164 1.01611 1.01583 1.01554 1.01524 1.01493 1.01462 1.0143 1.01396 1.01361 1.01323 1.01283 1.01239 1.01193 1.01142 1.01087 1.01029 1.00966 1.00899 1.00828 1.00753 1.00675 1.00593 1.00509 1.00423 1.00334 1.00243 1.00151 1.00057 0.999604 0.99862 0.997611 0.996575 0.99551 0.994415 0.99329 0.992136 0.990958 0.989761 0.988552 0.987341 0.986136 0.984946 0.983779 0.98264 0.981536 0.980468 0.979437 0.978443 0.977484 0.976558 0.97566 0.974789 0.973942 0.973115 0.972308 0.971517 0.970743 0.969985 0.969241 0.968512 0.967797 0.967095 0.966406 0.965728 0.965062 0.964404 0.963754 0.96311 0.962468 0.961827 0.961183 0.960532 0.959872 0.959199 0.958512 0.957809 0.957092 0.956362 0.955626 0.954888 0.954156 0.953437 0.952737 0.952061 0.951413 0.950792 0.950199 0.94963 0.949083 0.948555 0.948041 0.947541 0.947052 0.946573 0.946103 0.945641 0.945188 0.945188 
1.01814 1.01858 1.01861 1.01864 1.01868 1.01874 1.0188 1.01887 1.01894 1.01901 1.01908 1.01915 1.0192 1.01923 1.01925 1.01924 1.01921 1.01915 1.01907 1.01896 1.01882 1.01866 1.01848 1.01827 1.01805 1.01781 1.01756 1.01729 1.01702 1.01674 1.01645 1.01616 1.01585 1.01555 1.01524 1.01491 1.01458 1.01423 1.01386 1.01347 1.01304 1.01259 1.0121 1.01157 1.011 1.01039 1.00974 1.00904 1.00831 1.00755 1.00675 1.00592 1.00507 1.00419 1.0033 1.00239 1.00147 1.00052 0.999563 0.998583 0.997579 0.99655 0.995493 0.994405 0.993287 0.99214 0.990966 0.989772 0.988564 0.98735 0.986141 0.984944 0.983768 0.982621 0.981508 0.980432 0.979395 0.978396 0.977435 0.976507 0.975611 0.974743 0.973901 0.97308 0.97228 0.971498 0.970733 0.969984 0.969251 0.968532 0.967828 0.967137 0.96646 0.965794 0.96514 0.964496 0.96386 0.96323 0.962603 0.961977 0.961348 0.960713 0.960069 0.959413 0.958742 0.958055 0.957355 0.956642 0.955923 0.955202 0.954487 0.953786 0.953103 0.952445 0.951813 0.951208 0.95063 0.950075 0.94954 0.949022 0.948518 0.948026 0.947542 0.947067 0.946599 0.946136 0.94568 0.94568 
1.01833 1.01876 1.01879 1.01883 1.01889 1.01896 1.01903 1.01912 1.01921 1.0193 1.01939 1.01947 1.01953 1.01958 1.01961 1.01961 1.01959 1.01954 1.01946 1.01935 1.01921 1.01904 1.01885 1.01864 1.01841 1.01817 1.01791 1.01763 1.01735 1.01706 1.01677 1.01647 1.01616 1.01584 1.01552 1.01519 1.01484 1.01447 1.01409 1.01367 1.01323 1.01275 1.01224 1.01169 1.01109 1.01046 1.00978 1.00907 1.00831 1.00753 1.00672 1.00588 1.00502 1.00414 1.00324 1.00232 1.0014 1.00045 0.999495 0.998516 0.997517 0.996492 0.99544 0.994358 0.993246 0.992103 0.990934 0.989742 0.988535 0.987319 0.986106 0.984904 0.983721 0.982567 0.981446 0.980362 0.979319 0.978316 0.977352 0.976425 0.975531 0.974667 0.973829 0.973015 0.972223 0.971449 0.970694 0.969954 0.969231 0.968522 0.967828 0.967148 0.966482 0.965828 0.965186 0.964555 0.963932 0.963316 0.962704 0.962093 0.96148 0.960862 0.960234 0.959594 0.958941 0.958272 0.957589 0.956894 0.956193 0.95549 0.954793 0.954109 0.953444 0.952803 0.952187 0.951598 0.951033 0.95049 0.949966 0.949458 0.948961 0.948474 0.947995 0.947521 0.947053 0.946589 0.946129 0.946129 
1.01855 1.01897 1.019 1.01905 1.01912 1.0192 1.01929 1.01939 1.0195 1.01961 1.01971 1.01981 1.01989 1.01995 1.01999 1.02 1.01998 1.01993 1.01984 1.01973 1.01959 1.01942 1.01922 1.019 1.01876 1.01851 1.01824 1.01796 1.01767 1.01737 1.01707 1.01676 1.01644 1.01612 1.01579 1.01544 1.01507 1.01469 1.01429 1.01385 1.01339 1.01288 1.01235 1.01177 1.01115 1.01049 1.00979 1.00905 1.00829 1.00749 1.00666 1.00581 1.00494 1.00405 1.00315 1.00223 1.0013 1.00036 0.999399 0.998421 0.997423 0.996401 0.995352 0.994274 0.993166 0.992027 0.990861 0.989671 0.988464 0.987247 0.98603 0.984823 0.983634 0.982473 0.981345 0.980255 0.979207 0.978201 0.977235 0.976308 0.975416 0.974557 0.973726 0.972919 0.972135 0.971371 0.970624 0.969894 0.969181 0.968482 0.967798 0.967128 0.966472 0.965829 0.965199 0.964579 0.963969 0.963367 0.962769 0.962173 0.961576 0.960974 0.960364 0.959742 0.959106 0.958455 0.95779 0.957114 0.956431 0.955747 0.955068 0.954402 0.953755 0.95313 0.95253 0.951954 0.951402 0.950871 0.950356 0.949855 0.949364 0.948881 0.948404 0.947931 0.947462 0.946995 0.946531 0.946531 
1.01879 1.0192 1.01924 1.0193 1.01937 1.01947 1.01958 1.01969 1.01982 1.01994 1.02006 1.02017 1.02026 1.02033 1.02037 1.02038 1.02036 1.02031 1.02022 1.0201 1.01995 1.01977 1.01957 1.01934 1.01909 1.01883 1.01855 1.01827 1.01797 1.01767 1.01735 1.01704 1.01671 1.01638 1.01603 1.01567 1.01529 1.01488 1.01446 1.014 1.01351 1.01298 1.01242 1.01181 1.01117 1.01049 1.00977 1.00901 1.00823 1.00742 1.00658 1.00572 1.00484 1.00395 1.00304 1.00212 1.00119 1.00024 0.999279 0.9983 0.997301 0.996279 0.995231 0.994155 0.993048 0.991912 0.990748 0.989559 0.988351 0.987133 0.985913 0.984701 0.983507 0.982339 0.981205 0.980109 0.979057 0.978047 0.977081 0.976155 0.975267 0.974413 0.973589 0.972791 0.972016 0.971261 0.970524 0.969805 0.969101 0.968412 0.967738 0.967078 0.966432 0.965799 0.965179 0.964571 0.963973 0.963383 0.9628 0.962219 0.961637 0.961051 0.960458 0.959854 0.959236 0.958603 0.957957 0.9573 0.956635 0.955969 0.955309 0.954661 0.95403 0.953421 0.952835 0.952273 0.951733 0.951211 0.950704 0.950209 0.949722 0.949241 0.948765 0.948292 0.947821 0.947352 0.946884 0.946884 
1.01906 1.01946 1.0195 1.01957 1.01966 1.01976 1.01988 1.02001 1.02015 1.02029 1.02042 1.02053 1.02063 1.02071 1.02075 1.02077 1.02074 1.02068 1.02059 1.02046 1.0203 1.02011 1.01989 1.01966 1.0194 1.01913 1.01884 1.01855 1.01825 1.01794 1.01762 1.01729 1.01696 1.01661 1.01625 1.01587 1.01547 1.01505 1.0146 1.01411 1.0136 1.01304 1.01245 1.01183 1.01116 1.01046 1.00972 1.00895 1.00815 1.00732 1.00648 1.00561 1.00473 1.00383 1.00292 1.00199 1.00105 1.0001 0.999139 0.998156 0.997155 0.99613 0.995081 0.994004 0.992897 0.991761 0.990596 0.989407 0.988198 0.986978 0.985755 0.984538 0.983338 0.982165 0.981024 0.979924 0.978868 0.977856 0.97689 0.975966 0.975082 0.974234 0.973418 0.972629 0.971864 0.97112 0.970395 0.969686 0.968992 0.968314 0.967649 0.966999 0.966362 0.965739 0.965129 0.964532 0.963945 0.963368 0.962797 0.96223 0.961664 0.961094 0.960518 0.95993 0.959331 0.958716 0.958089 0.95745 0.956804 0.956156 0.955514 0.954882 0.954267 0.953673 0.953101 0.952551 0.95202 0.951507 0.951006 0.950516 0.950032 0.949553 0.949077 0.948603 0.94813 0.947658 0.947187 0.947187 
1.01936 1.01974 1.01979 1.01986 1.01996 1.02008 1.02021 1.02035 1.0205 1.02065 1.02079 1.02091 1.02101 1.02109 1.02113 1.02114 1.02111 1.02104 1.02094 1.0208 1.02062 1.02042 1.0202 1.01995 1.01968 1.0194 1.01911 1.01881 1.0185 1.01818 1.01786 1.01753 1.01718 1.01682 1.01644 1.01605 1.01563 1.01518 1.01471 1.0142 1.01366 1.01308 1.01246 1.01181 1.01112 1.0104 1.00965 1.00887 1.00806 1.00722 1.00637 1.00549 1.0046 1.0037 1.00278 1.00185 1.00091 0.999954 0.998983 0.997995 0.996988 0.995959 0.994906 0.993825 0.992715 0.991577 0.99041 0.989219 0.988008 0.986784 0.985557 0.984335 0.98313 0.981951 0.980805 0.9797 0.97864 0.977627 0.976661 0.975741 0.974862 0.974021 0.973213 0.972435 0.971681 0.970949 0.970235 0.969538 0.968856 0.968188 0.967534 0.966893 0.966266 0.965652 0.965052 0.964465 0.963889 0.963323 0.962765 0.962211 0.96166 0.961105 0.960545 0.959975 0.959392 0.958796 0.958186 0.957565 0.956937 0.956307 0.955681 0.955065 0.954466 0.953885 0.953325 0.952785 0.952263 0.951757 0.951261 0.950775 0.950293 0.949815 0.949339 0.948864 0.948389 0.947914 0.94744 0.94744 
1.01968 1.02005 1.02011 1.02019 1.02029 1.02042 1.02056 1.02071 1.02087 1.02102 1.02116 1.02129 1.02139 1.02146 1.0215 1.0215 1.02146 1.02138 1.02126 1.02111 1.02092 1.02071 1.02047 1.02022 1.01994 1.01965 1.01936 1.01905 1.01873 1.01841 1.01808 1.01774 1.01738 1.01701 1.01662 1.01621 1.01576 1.0153 1.0148 1.01426 1.0137 1.01309 1.01245 1.01178 1.01107 1.01034 1.00957 1.00877 1.00795 1.00711 1.00625 1.00537 1.00448 1.00357 1.00265 1.00171 1.00076 0.999797 0.998818 0.997823 0.996807 0.995771 0.99471 0.993623 0.992508 0.991365 0.990194 0.988998 0.987783 0.986554 0.985322 0.984095 0.982883 0.981698 0.980547 0.979437 0.978374 0.977361 0.976396 0.975479 0.974606 0.973773 0.972975 0.972208 0.971467 0.970748 0.970047 0.969363 0.968693 0.968037 0.967393 0.966763 0.966146 0.965542 0.964951 0.964373 0.963808 0.963253 0.962706 0.962166 0.961628 0.961088 0.960543 0.959989 0.959424 0.958844 0.958252 0.957648 0.957037 0.956423 0.955812 0.955211 0.954625 0.954056 0.953507 0.952976 0.952461 0.95196 0.951469 0.950985 0.950505 0.950027 0.949551 0.949074 0.948598 0.948122 0.947645 0.947645 
1.02004 1.02039 1.02045 1.02053 1.02064 1.02078 1.02092 1.02108 1.02124 1.0214 1.02154 1.02166 1.02176 1.02182 1.02185 1.02184 1.02178 1.02169 1.02156 1.0214 1.0212 1.02097 1.02072 1.02046 1.02018 1.01988 1.01958 1.01927 1.01895 1.01862 1.01828 1.01793 1.01756 1.01718 1.01677 1.01634 1.01588 1.01539 1.01486 1.01431 1.01371 1.01309 1.01243 1.01174 1.01102 1.01027 1.00949 1.00868 1.00786 1.00701 1.00614 1.00526 1.00436 1.00344 1.00251 1.00157 1.00061 0.999638 0.99865 0.997643 0.996617 0.995572 0.9945 0.993404 0.99228 0.991129 0.989951 0.988748 0.987527 0.986292 0.985052 0.983819 0.982601 0.981408 0.980252 0.979138 0.978072 0.977058 0.976095 0.975181 0.974315 0.973491 0.972704 0.97195 0.971222 0.970517 0.969831 0.969161 0.968505 0.967862 0.967231 0.966612 0.966005 0.965411 0.964829 0.964261 0.963706 0.963162 0.962627 0.962098 0.961573 0.961047 0.960517 0.959978 0.959429 0.958865 0.958289 0.957701 0.957105 0.956506 0.95591 0.955322 0.954747 0.954188 0.953648 0.953124 0.952616 0.952119 0.951631 0.951149 0.95067 0.950193 0.949716 0.949239 0.948761 0.948284 0.947806 0.947806 
1.02043 1.02076 1.02082 1.02091 1.02102 1.02116 1.02131 1.02147 1.02163 1.02178 1.02191 1.02203 1.02211 1.02217 1.02218 1.02216 1.02209 1.02198 1.02184 1.02166 1.02145 1.02121 1.02095 1.02068 1.02039 1.02009 1.01978 1.01946 1.01914 1.01881 1.01846 1.0181 1.01772 1.01733 1.0169 1.01645 1.01597 1.01546 1.01491 1.01433 1.01372 1.01308 1.0124 1.01169 1.01096 1.0102 1.00941 1.0086 1.00777 1.00692 1.00605 1.00516 1.00425 1.00333 1.00239 1.00144 1.00047 0.999484 0.998482 0.997462 0.996426 0.995365 0.994281 0.993173 0.992037 0.990874 0.989687 0.988474 0.987242 0.986001 0.984751 0.983509 0.982284 0.981084 0.979921 0.978804 0.977735 0.976719 0.975759 0.97485 0.973991 0.973177 0.972402 0.971661 0.970948 0.970259 0.969589 0.968935 0.968295 0.967666 0.967048 0.966441 0.965846 0.965262 0.964691 0.964133 0.963588 0.963054 0.96253 0.962013 0.9615 0.960988 0.960471 0.959947 0.959412 0.958863 0.958302 0.957728 0.957146 0.95656 0.955976 0.955399 0.954834 0.954285 0.953751 0.953233 0.952729 0.952236 0.95175 0.95127 0.950792 0.950314 0.949837 0.94936 0.948883 0.948405 0.947928 0.947928 
1.02085 1.02116 1.02122 1.02131 1.02142 1.02156 1.02171 1.02186 1.02201 1.02216 1.02228 1.02239 1.02246 1.0225 1.02249 1.02245 1.02237 1.02224 1.02208 1.02189 1.02167 1.02142 1.02115 1.02087 1.02057 1.02027 1.01996 1.01964 1.01931 1.01897 1.01862 1.01825 1.01787 1.01745 1.01701 1.01655 1.01605 1.01551 1.01495 1.01435 1.01372 1.01306 1.01237 1.01165 1.01091 1.01014 1.00935 1.00853 1.0077 1.00684 1.00597 1.00507 1.00416 1.00323 1.00228 1.00132 1.00034 0.999339 0.998321 0.99729 0.996237 0.995156 0.994061 0.992936 0.991783 0.990605 0.989404 0.988183 0.986935 0.985681 0.984425 0.983169 0.981933 0.980728 0.979557 0.978433 0.977364 0.976347 0.97539 0.974486 0.973635 0.972831 0.972069 0.971343 0.970647 0.969975 0.969323 0.968686 0.968062 0.96745 0.966847 0.966254 0.965671 0.9651 0.96454 0.963993 0.963458 0.962934 0.962421 0.961916 0.961415 0.960914 0.960411 0.959899 0.959377 0.958843 0.958294 0.957734 0.957164 0.95659 0.956016 0.955448 0.954891 0.954348 0.95382 0.953306 0.952806 0.952315 0.951831 0.951351 0.950874 0.950398 0.949921 0.949445 0.948968 0.948491 0.948015 0.948015 
1.02129 1.02159 1.02165 1.02173 1.02184 1.02197 1.02212 1.02226 1.0224 1.02253 1.02265 1.02273 1.02279 1.02281 1.02278 1.02272 1.02262 1.02248 1.02231 1.0221 1.02186 1.02161 1.02133 1.02104 1.02074 1.02043 1.02012 1.0198 1.01946 1.01912 1.01876 1.01838 1.01799 1.01756 1.01711 1.01662 1.01611 1.01556 1.01498 1.01436 1.01372 1.01305 1.01235 1.01162 1.01088 1.0101 1.00931 1.00849 1.00765 1.00679 1.00592 1.00502 1.0041 1.00316 1.0022 1.00122 1.00023 0.999206 0.998177 0.99713 0.996048 0.994959 0.993846 0.992691 0.991525 0.990334 0.989106 0.987871 0.986616 0.985338 0.98407 0.982805 0.981553 0.980337 0.979163 0.97803 0.976959 0.975944 0.974986 0.974091 0.973248 0.972456 0.971708 0.970997 0.970319 0.969666 0.969032 0.968415 0.967811 0.967216 0.96663 0.966053 0.965485 0.964927 0.964379 0.963844 0.96332 0.962807 0.962305 0.96181 0.961321 0.960832 0.96034 0.959841 0.959331 0.958808 0.958272 0.957722 0.957163 0.956598 0.956033 0.955472 0.954921 0.954383 0.953859 0.953348 0.95285 0.952361 0.951878 0.9514 0.950923 0.950448 0.949973 0.949497 0.949022 0.948548 0.948073 0.948073 