# vtk DataFile Version 3.0
LBM simulation at step 270
ASCII
DATASET STRUCTURED_POINTS
DIMENSIONS 256 256 1
ORIGIN 0 0 0
SPACING 1 1 1
POINT_DATA 65536
SCALARS density float
LOOKUP_TABLE default
0.741871 1.08858 1.13531 1.09301 1.08475 1.09353 1.09525 1.09339 1.09274 1.09284 1.09276 1.09254 1.09239 1.09229 1.09219 1.0921 1.09202 1.09196 1.0919 1.09184 1.09179 1.09174 1.09169 1.09165 1.09161 1.09157 1.09153 1.0915 1.09146 1.09143 1.09139 1.09136 1.09133 1.0913 1.09127 1.09124 1.09122 1.09119 1.09116 1.09114 1.09112 1.09109 1.09107 1.09105 1.09102 1.091 1.09098 1.09096 1.09094 1.09092 1.0909 1.09088 1.09086 1.09084 1.09083 1.09081 1.09079 1.09077 1.09075 1.09074 1.09072 1.0907 1.09069 1.09067 1.09065 1.09064 1.09062 1.0906 1.09059 1.09057 1.09055 1.09054 1.09052 1.09051 1.09049 1.09048 1.09046 1.09044 1.09043 1.09041 1.0904 1.09038 1.09036 1.09035 1.09033 1.09031 1.09029 1.09027 1.09025 1.09022 1.09018 1.09014 1.09008 1.09 1.08991 1.08978 1.08962 1.08942 1.08917 1.08886 1.08849 1.08805 1.08753 1.08695 1.08628 1.08555 1.08474 1.08388 1.08296 1.08199 1.081 1.07997 1.07894 1.0779 1.07687 1.07585 1.07485 1.07387 1.07293 1.07201 1.07112 1.07026 1.06942 1.06862 1.06784 1.06708 1.06634 1.06561 1.0649 1.06421 1.06353 1.06286 1.06219 1.06154 1.0609 1.06026 1.05963 1.059 1.05839 1.05778 1.05719 1.0566 1.05603 1.05548 1.05494 1.0544 1.05384 1.05324 1.05253 1.05164 1.05045 1.04879 1.04647 1.04329 1.03906 1.03366 1.02709 1.01951 1.01123 1.0027 0.994402 0.986747 0.980031 0.974391 0.969827 0.966236 0.963467 0.961354 0.959743 0.958499 0.95752 0.956723 0.956051 0.955461 0.954924 0.954421 0.953939 0.953469 0.953006 0.952547 0.952089 0.951632 0.951174 0.950716 0.950256 0.949795 0.949332 0.948867 0.948401 0.947932 0.947461 0.946988 0.946512 0.946034 0.945553 0.945069 0.944582 0.944091 0.943597 0.9431 0.942598 0.942093 0.941583 0.941068 0.940549 0.940025 0.939495 0.93896 0.938418 0.93787 0.937316 0.936754 0.936185 0.935608 0.935022 0.934427 0.933822 0.933207 0.932581 0.931944 0.931293 0.930629 0.929951 0.929257 0.928546 0.927817 0.927069 0.926298 0.925505 0.924686 0.923839 0.922962 0.92205 0.921102 0.920111 0.919074 0.917985 0.916837 0.915622 0.91433 0.912949 0.911465 0.90986 0.90811 0.906183 0.904048 0.90165 0.898876 0.895621 0.891963 0.887529 0.880317 0.870879 0.8659 0.844168 0.689793 
1.13167 1.06498 1.06002 1.09516 1.09857 1.09304 1.09211 1.0932 1.09326 1.09286 1.09264 1.09253 1.09242 1.0923 1.09219 1.0921 1.09203 1.09196 1.09189 1.09184 1.09178 1.09174 1.09169 1.09165 1.0916 1.09157 1.09153 1.09149 1.09145 1.09142 1.09139 1.09136 1.09132 1.0913 1.09126 1.09124 1.09121 1.09119 1.09116 1.09114 1.09111 1.09109 1.09106 1.09104 1.09102 1.091 1.09097 1.09096 1.09093 1.09092 1.09089 1.09088 1.09085 1.09084 1.09082 1.0908 1.09078 1.09076 1.09075 1.09073 1.09071 1.09069 1.09068 1.09066 1.09064 1.09063 1.09061 1.09059 1.09058 1.09056 1.09054 1.09053 1.09051 1.0905 1.09048 1.09046 1.09045 1.09043 1.09042 1.0904 1.09038 1.09037 1.09035 1.09033 1.09032 1.0903 1.09028 1.09026 1.09023 1.0902 1.09016 1.09011 1.09005 1.08997 1.08987 1.08974 1.08957 1.08936 1.08911 1.08879 1.08841 1.08796 1.08744 1.08685 1.08618 1.08544 1.08464 1.08377 1.08285 1.08189 1.0809 1.07988 1.07886 1.07782 1.0768 1.07578 1.07479 1.07382 1.07287 1.07196 1.07107 1.07021 1.06938 1.06857 1.06779 1.06703 1.06629 1.06556 1.06485 1.06416 1.06347 1.0628 1.06213 1.06147 1.06082 1.06018 1.05955 1.05892 1.0583 1.05768 1.05708 1.05649 1.0559 1.05533 1.05476 1.05418 1.05358 1.05291 1.05213 1.05114 1.04985 1.0481 1.04572 1.04256 1.03844 1.03326 1.02703 1.01983 1.01194 1.00371 0.995589 0.987975 0.981186 0.975401 0.970657 0.966885 0.963955 0.961707 0.95999 0.958667 0.957629 0.956791 0.956091 0.955481 0.954932 0.954421 0.953933 0.95346 0.952995 0.952534 0.952076 0.951618 0.951159 0.9507 0.95024 0.949779 0.949315 0.94885 0.948383 0.947914 0.947443 0.946969 0.946493 0.946014 0.945533 0.945048 0.94456 0.944069 0.943574 0.943076 0.942574 0.942068 0.941557 0.941042 0.940521 0.939996 0.939465 0.938929 0.938386 0.937837 0.937281 0.936718 0.936148 0.935569 0.934981 0.934385 0.933778 0.933161 0.932533 0.931893 0.931241 0.930574 0.929893 0.929196 0.928482 0.927749 0.926996 0.926221 0.925423 0.924598 0.923746 0.922861 0.921943 0.920985 0.919986 0.918938 0.917837 0.916675 0.915444 0.914133 0.912731 0.911222 0.909586 0.9078 0.905832 0.903632 0.90115 0.898348 0.895061 0.890849 0.885819 0.880959 0.872893 0.84997 0.827379 0.827379 
1.14092 1.06912 1.07794 1.09751 1.09442 1.09183 1.09284 1.09339 1.09302 1.09274 1.09264 1.09254 1.0924 1.09228 1.09219 1.0921 1.09202 1.09195 1.09189 1.09183 1.09178 1.09173 1.09168 1.09164 1.0916 1.09156 1.09152 1.09149 1.09145 1.09142 1.09138 1.09135 1.09132 1.09129 1.09126 1.09124 1.0912 1.09118 1.09115 1.09113 1.0911 1.09108 1.09105 1.09104 1.09101 1.09099 1.09097 1.09095 1.09092 1.09091 1.09088 1.09087 1.09085 1.09083 1.09081 1.09079 1.09077 1.09076 1.09074 1.09072 1.0907 1.09068 1.09067 1.09065 1.09063 1.09062 1.0906 1.09058 1.09057 1.09055 1.09053 1.09052 1.0905 1.09048 1.09047 1.09045 1.09044 1.09042 1.0904 1.09039 1.09037 1.09035 1.09034 1.09032 1.0903 1.09028 1.09026 1.09024 1.09021 1.09018 1.09014 1.09009 1.09003 1.08995 1.08984 1.08971 1.08954 1.08932 1.08906 1.08873 1.08835 1.08789 1.08737 1.08677 1.0861 1.08535 1.08454 1.08368 1.08276 1.0818 1.08081 1.0798 1.07877 1.07775 1.07673 1.07572 1.07473 1.07376 1.07282 1.07191 1.07102 1.07016 1.06933 1.06853 1.06775 1.06698 1.06624 1.06551 1.0648 1.0641 1.06341 1.06273 1.06206 1.0614 1.06075 1.0601 1.05946 1.05883 1.0582 1.05758 1.05696 1.05635 1.05575 1.05515 1.05455 1.05394 1.05328 1.05256 1.0517 1.05064 1.04928 1.04748 1.0451 1.042 1.03802 1.03308 1.02714 1.02028 1.01269 1.0047 0.99671 0.989112 0.982246 0.976322 0.971413 0.967477 0.964399 0.96203 0.960216 0.958821 0.957731 0.956856 0.956129 0.955503 0.954942 0.954423 0.953931 0.953454 0.952987 0.952525 0.952066 0.951608 0.951149 0.95069 0.950229 0.949767 0.949303 0.948838 0.948371 0.947901 0.947429 0.946955 0.946479 0.946 0.945517 0.945032 0.944544 0.944053 0.943557 0.943059 0.942556 0.942049 0.941538 0.941022 0.940501 0.939975 0.939443 0.938906 0.938363 0.937813 0.937256 0.936692 0.936121 0.935541 0.934952 0.934354 0.933747 0.933129 0.932499 0.931858 0.931203 0.930535 0.929852 0.929153 0.928437 0.927702 0.926947 0.92617 0.925369 0.924541 0.923685 0.922798 0.921875 0.920914 0.91991 0.918858 0.917752 0.916585 0.915348 0.914032 0.912624 0.911109 0.909467 0.907676 0.905709 0.903524 0.901047 0.898223 0.895083 0.891338 0.88621 0.880588 0.876783 0.867492 0.851658 0.851658 
1.05762 1.09353 1.10638 1.08873 1.08857 1.09388 1.09399 1.09276 1.09264 1.09279 1.09267 1.09248 1.09236 1.09227 1.09217 1.09208 1.092 1.09194 1.09187 1.09182 1.09176 1.09172 1.09167 1.09163 1.09159 1.09155 1.09151 1.09148 1.09144 1.09141 1.09137 1.09135 1.09131 1.09129 1.09125 1.09123 1.09119 1.09118 1.09114 1.09112 1.09109 1.09108 1.09105 1.09103 1.091 1.09099 1.09096 1.09094 1.09092 1.0909 1.09088 1.09086 1.09084 1.09082 1.0908 1.09078 1.09076 1.09075 1.09073 1.09071 1.09069 1.09068 1.09066 1.09064 1.09062 1.09061 1.09059 1.09057 1.09056 1.09054 1.09052 1.09051 1.09049 1.09047 1.09046 1.09044 1.09042 1.09041 1.09039 1.09037 1.09036 1.09034 1.09032 1.09031 1.09029 1.09027 1.09025 1.09022 1.0902 1.09016 1.09012 1.09007 1.09001 1.08992 1.08981 1.08968 1.0895 1.08928 1.08901 1.08868 1.08829 1.08783 1.0873 1.0867 1.08602 1.08527 1.08446 1.08359 1.08268 1.08172 1.08073 1.07972 1.0787 1.07767 1.07666 1.07565 1.07467 1.0737 1.07277 1.07186 1.07097 1.07012 1.06929 1.06848 1.0677 1.06693 1.06619 1.06546 1.06475 1.06404 1.06335 1.06267 1.062 1.06133 1.06067 1.06002 1.05938 1.05873 1.0581 1.05747 1.05684 1.05622 1.0556 1.05498 1.05435 1.0537 1.05301 1.05223 1.05132 1.05021 1.0488 1.04697 1.0446 1.04155 1.03769 1.03293 1.02724 1.02067 1.01336 1.0056 0.997738 0.990175 0.983254 0.977212 0.972153 0.968063 0.964844 0.962355 0.960447 0.95898 0.957837 0.956925 0.956173 0.955529 0.954956 0.95443 0.953933 0.953453 0.952984 0.952521 0.952061 0.951602 0.951143 0.950683 0.950222 0.94976 0.949296 0.94883 0.948363 0.947893 0.947421 0.946947 0.94647 0.94599 0.945508 0.945022 0.944534 0.944042 0.943546 0.943047 0.942544 0.942037 0.941525 0.941009 0.940488 0.939961 0.939429 0.938891 0.938348 0.937797 0.93724 0.936676 0.936104 0.935523 0.934934 0.934336 0.933728 0.933109 0.932479 0.931837 0.931182 0.930513 0.929829 0.92913 0.928413 0.927677 0.926921 0.926144 0.925342 0.924515 0.923658 0.922771 0.921848 0.920888 0.919884 0.918834 0.91773 0.916566 0.915333 0.914024 0.912624 0.911122 0.9095 0.907735 0.905798 0.903667 0.90131 0.898602 0.895453 0.892142 0.888486 0.882633 0.875805 0.873279 0.870312 0.870312 
1.0972 1.097 1.08942 1.08949 1.09451 1.09352 1.0923 1.09266 1.09293 1.09273 1.09252 1.09243 1.09234 1.09224 1.09214 1.09206 1.09199 1.09192 1.09186 1.09181 1.09175 1.09171 1.09166 1.09162 1.09158 1.09155 1.0915 1.09147 1.09143 1.0914 1.09136 1.09134 1.0913 1.09128 1.09124 1.09122 1.09118 1.09117 1.09113 1.09112 1.09108 1.09107 1.09104 1.09102 1.09099 1.09098 1.09095 1.09093 1.09091 1.09089 1.09087 1.09085 1.09083 1.09081 1.09079 1.09078 1.09075 1.09074 1.09072 1.0907 1.09068 1.09067 1.09065 1.09063 1.09061 1.0906 1.09058 1.09056 1.09054 1.09053 1.09051 1.09049 1.09048 1.09046 1.09044 1.09043 1.09041 1.09039 1.09038 1.09036 1.09034 1.09033 1.09031 1.09029 1.09027 1.09025 1.09023 1.09021 1.09018 1.09015 1.0901 1.09005 1.08999 1.0899 1.08979 1.08965 1.08947 1.08925 1.08897 1.08864 1.08824 1.08778 1.08724 1.08663 1.08595 1.0852 1.08439 1.08352 1.0826 1.08164 1.08065 1.07964 1.07863 1.07761 1.07659 1.07559 1.07461 1.07365 1.07271 1.07181 1.07092 1.07007 1.06924 1.06844 1.06765 1.06689 1.06614 1.06541 1.06469 1.06399 1.0633 1.06261 1.06193 1.06127 1.0606 1.05995 1.05929 1.05865 1.058 1.05736 1.05673 1.05609 1.05546 1.05482 1.05417 1.05349 1.05276 1.05194 1.05098 1.04981 1.04835 1.04649 1.04412 1.04112 1.03737 1.0328 1.02734 1.02104 1.01399 1.00645 0.998724 0.991203 0.984236 0.978084 0.972882 0.968643 0.965286 0.962681 0.960679 0.959142 0.957947 0.956998 0.95622 0.955558 0.954974 0.95444 0.953938 0.953456 0.952985 0.95252 0.952059 0.9516 0.95114 0.95068 0.950219 0.949757 0.949293 0.948827 0.948359 0.947889 0.947417 0.946943 0.946465 0.945986 0.945503 0.945018 0.944529 0.944037 0.943541 0.943042 0.942539 0.942031 0.941519 0.941003 0.940481 0.939955 0.939423 0.938885 0.938341 0.93779 0.937233 0.936669 0.936096 0.935516 0.934927 0.934329 0.93372 0.933102 0.932472 0.93183 0.931175 0.930507 0.929824 0.929125 0.928409 0.927674 0.926919 0.926143 0.925343 0.924517 0.923664 0.922779 0.92186 0.920904 0.919907 0.918863 0.917768 0.916614 0.915396 0.914103 0.912726 0.911252 0.909667 0.907955 0.906089 0.904037 0.901793 0.899352 0.896531 0.893244 0.890151 0.886987 0.881978 0.878034 0.876362 0.876362 
1.09912 1.09228 1.09031 1.09493 1.09342 1.09171 1.09267 1.09306 1.0927 1.0925 1.09248 1.09241 1.09229 1.09219 1.09211 1.09204 1.09196 1.0919 1.09184 1.09179 1.09173 1.09169 1.09164 1.09161 1.09156 1.09153 1.09149 1.09146 1.09142 1.0914 1.09135 1.09133 1.09129 1.09127 1.09123 1.09122 1.09117 1.09116 1.09112 1.09111 1.09107 1.09106 1.09103 1.09102 1.09098 1.09097 1.09094 1.09093 1.0909 1.09089 1.09086 1.09084 1.09082 1.09081 1.09078 1.09077 1.09074 1.09073 1.09071 1.09069 1.09067 1.09066 1.09064 1.09062 1.0906 1.09059 1.09057 1.09055 1.09053 1.09052 1.0905 1.09048 1.09046 1.09045 1.09043 1.09041 1.0904 1.09038 1.09036 1.09035 1.09033 1.09031 1.09029 1.09028 1.09026 1.09024 1.09022 1.09019 1.09016 1.09013 1.09009 1.09003 1.08997 1.08988 1.08977 1.08962 1.08944 1.08921 1.08894 1.0886 1.0882 1.08773 1.08719 1.08657 1.08589 1.08514 1.08432 1.08345 1.08253 1.08157 1.08059 1.07958 1.07856 1.07755 1.07653 1.07554 1.07456 1.0736 1.07267 1.07176 1.07088 1.07003 1.0692 1.06839 1.06761 1.06684 1.0661 1.06536 1.06465 1.06394 1.06324 1.06256 1.06188 1.0612 1.06054 1.05987 1.05922 1.05856 1.05791 1.05727 1.05662 1.05598 1.05533 1.05467 1.05399 1.05328 1.05251 1.05164 1.05064 1.04942 1.04792 1.04604 1.04368 1.04073 1.03709 1.03269 1.02746 1.0214 1.01461 1.00727 0.999675 0.992197 0.98519 0.978936 0.973599 0.969215 0.965725 0.963005 0.960912 0.959304 0.958058 0.957073 0.956269 0.955591 0.954995 0.954454 0.953947 0.953462 0.952989 0.952524 0.952062 0.951602 0.951142 0.950682 0.950221 0.949758 0.949294 0.948828 0.94836 0.94789 0.947418 0.946943 0.946466 0.945986 0.945504 0.945018 0.944529 0.944037 0.943542 0.943042 0.942539 0.942031 0.94152 0.941003 0.940482 0.939955 0.939423 0.938886 0.938342 0.937792 0.937235 0.93667 0.936099 0.935519 0.93493 0.934332 0.933725 0.933107 0.932478 0.931837 0.931183 0.930516 0.929834 0.929137 0.928423 0.927691 0.926939 0.926165 0.925369 0.924548 0.923699 0.92282 0.921908 0.92096 0.919972 0.91894 0.917859 0.916722 0.915525 0.914258 0.912913 0.91148 0.909945 0.908296 0.906522 0.904596 0.902475 0.900188 0.897794 0.895021 0.891781 0.889004 0.886352 0.883397 0.881411 0.881411 
1.09033 1.0928 1.09427 1.09309 1.09177 1.09285 1.09306 1.09255 1.09247 1.09254 1.09245 1.09232 1.09223 1.09216 1.09208 1.092 1.09193 1.09187 1.09182 1.09177 1.09172 1.09168 1.09163 1.0916 1.09155 1.09152 1.09148 1.09145 1.09141 1.09138 1.09134 1.09132 1.09128 1.09126 1.09122 1.09121 1.09116 1.09115 1.09111 1.0911 1.09106 1.09105 1.09101 1.09101 1.09097 1.09096 1.09093 1.09092 1.09088 1.09088 1.09084 1.09084 1.09081 1.0908 1.09077 1.09076 1.09073 1.09072 1.09069 1.09068 1.09066 1.09065 1.09062 1.09061 1.09059 1.09057 1.09055 1.09054 1.09052 1.0905 1.09049 1.09047 1.09045 1.09044 1.09042 1.0904 1.09038 1.09037 1.09035 1.09033 1.09032 1.0903 1.09028 1.09026 1.09024 1.09022 1.0902 1.09017 1.09015 1.09011 1.09007 1.09001 1.08995 1.08986 1.08974 1.0896 1.08941 1.08918 1.0889 1.08856 1.08816 1.08768 1.08714 1.08652 1.08584 1.08508 1.08426 1.08339 1.08247 1.08151 1.08053 1.07952 1.07851 1.07749 1.07648 1.07549 1.07451 1.07356 1.07263 1.07172 1.07084 1.06999 1.06916 1.06836 1.06757 1.06681 1.06606 1.06532 1.0646 1.06389 1.06319 1.0625 1.06182 1.06115 1.06047 1.05981 1.05915 1.05849 1.05783 1.05717 1.05652 1.05586 1.0552 1.05452 1.05381 1.05307 1.05226 1.05136 1.0503 1.04905 1.04751 1.04561 1.04327 1.04038 1.03685 1.03261 1.02759 1.02177 1.0152 1.00806 1.0006 0.993161 0.986118 0.979768 0.9743 0.969778 0.966157 0.963325 0.961143 0.959467 0.958171 0.957149 0.956321 0.955626 0.95502 0.954471 0.95396 0.953472 0.952997 0.95253 0.952068 0.951608 0.951148 0.950687 0.950226 0.949763 0.949299 0.948833 0.948365 0.947895 0.947423 0.946948 0.946471 0.945992 0.945509 0.945023 0.944535 0.944043 0.943547 0.943048 0.942545 0.942037 0.941526 0.94101 0.940489 0.939962 0.939431 0.938894 0.93835 0.9378 0.937244 0.93668 0.936109 0.93553 0.934942 0.934346 0.933739 0.933122 0.932495 0.931856 0.931204 0.930539 0.92986 0.929165 0.928454 0.927725 0.926977 0.926208 0.925417 0.924602 0.92376 0.922889 0.921986 0.921049 0.920074 0.919057 0.917994 0.91688 0.915708 0.914473 0.913167 0.911782 0.910309 0.908734 0.907048 0.905251 0.903319 0.901197 0.89897 0.896737 0.894203 0.891524 0.889221 0.886996 0.885168 0.885168 
1.09271 1.093 1.09292 1.09223 1.09281 1.09298 1.09244 1.09245 1.09256 1.09245 1.09232 1.09226 1.09219 1.09211 1.09203 1.09197 1.0919 1.09185 1.09179 1.09175 1.0917 1.09166 1.09161 1.09158 1.09153 1.09151 1.09146 1.09144 1.09139 1.09137 1.09133 1.09131 1.09127 1.09125 1.09121 1.0912 1.09115 1.09114 1.0911 1.09109 1.09105 1.09105 1.091 1.091 1.09096 1.09095 1.09091 1.09091 1.09087 1.09087 1.09083 1.09083 1.09079 1.09079 1.09076 1.09075 1.09072 1.09071 1.09068 1.09067 1.09065 1.09064 1.09061 1.0906 1.09058 1.09056 1.09054 1.09053 1.09051 1.09049 1.09047 1.09046 1.09044 1.09042 1.09041 1.09039 1.09037 1.09035 1.09034 1.09032 1.0903 1.09028 1.09026 1.09025 1.09023 1.09021 1.09018 1.09016 1.09013 1.09009 1.09005 1.09 1.08993 1.08984 1.08972 1.08957 1.08939 1.08916 1.08887 1.08853 1.08812 1.08764 1.0871 1.08648 1.08579 1.08503 1.08421 1.08334 1.08242 1.08146 1.08048 1.07947 1.07846 1.07745 1.07644 1.07545 1.07447 1.07352 1.07259 1.07169 1.07081 1.06996 1.06913 1.06833 1.06754 1.06677 1.06602 1.06529 1.06456 1.06385 1.06315 1.06246 1.06177 1.06109 1.06042 1.05975 1.05908 1.05841 1.05775 1.05708 1.05642 1.05574 1.05506 1.05436 1.05364 1.05286 1.05202 1.05107 1.04998 1.04869 1.04712 1.04522 1.0429 1.04007 1.03665 1.03256 1.02773 1.02214 1.01579 1.00883 1.00149 0.994096 0.98702 0.980579 0.974987 0.970329 0.966582 0.963641 0.961371 0.959629 0.958283 0.957227 0.956375 0.955664 0.955046 0.954491 0.953975 0.953484 0.953008 0.952541 0.952078 0.951617 0.951157 0.950696 0.950235 0.949772 0.949308 0.948842 0.948374 0.947904 0.947432 0.946958 0.946481 0.946001 0.945519 0.945033 0.944545 0.944053 0.943557 0.943058 0.942556 0.942049 0.941537 0.941022 0.940501 0.939975 0.939444 0.938908 0.938365 0.937816 0.93726 0.936698 0.936128 0.93555 0.934963 0.934368 0.933763 0.933148 0.932522 0.931885 0.931236 0.930574 0.929898 0.929206 0.928499 0.927775 0.927032 0.926269 0.925484 0.924676 0.923842 0.922981 0.92209 0.921166 0.920207 0.919208 0.918166 0.917076 0.915934 0.914735 0.913472 0.912138 0.910729 0.909236 0.907646 0.905955 0.904179 0.902296 0.900248 0.898164 0.89611 0.893941 0.891846 0.88996 0.88833 0.88833 
1.0933 1.09261 1.0924 1.09267 1.09281 1.09243 1.09244 1.09255 1.09242 1.09231 1.09227 1.09221 1.09213 1.09206 1.09199 1.09193 1.09187 1.09182 1.09176 1.09172 1.09167 1.09164 1.09159 1.09156 1.09152 1.09149 1.09145 1.09142 1.09138 1.09136 1.09132 1.0913 1.09125 1.09124 1.0912 1.09119 1.09114 1.09113 1.09109 1.09108 1.09104 1.09104 1.09099 1.09099 1.09095 1.09094 1.0909 1.0909 1.09086 1.09086 1.09082 1.09082 1.09078 1.09078 1.09074 1.09074 1.09071 1.0907 1.09067 1.09066 1.09064 1.09062 1.0906 1.09059 1.09057 1.09055 1.09053 1.09052 1.0905 1.09048 1.09046 1.09045 1.09043 1.09041 1.09039 1.09038 1.09036 1.09034 1.09032 1.0903 1.09029 1.09027 1.09025 1.09023 1.09021 1.09019 1.09017 1.09014 1.09011 1.09008 1.09003 1.08998 1.08991 1.08982 1.0897 1.08955 1.08936 1.08913 1.08884 1.0885 1.08809 1.08761 1.08706 1.08644 1.08574 1.08498 1.08417 1.08329 1.08237 1.08142 1.08043 1.07943 1.07842 1.07741 1.07641 1.07542 1.07444 1.07349 1.07256 1.07166 1.07078 1.06993 1.0691 1.0683 1.06751 1.06674 1.06599 1.06525 1.06453 1.06381 1.06311 1.06241 1.06172 1.06104 1.06036 1.05968 1.05901 1.05834 1.05767 1.05699 1.05631 1.05563 1.05493 1.05421 1.05346 1.05266 1.05178 1.0508 1.04967 1.04835 1.04676 1.04486 1.04256 1.03979 1.03648 1.03254 1.0279 1.02251 1.01637 1.00958 1.00235 0.995005 0.987899 0.981371 0.975658 0.97087 0.966999 0.963953 0.961597 0.959789 0.958396 0.957306 0.95643 0.955703 0.955076 0.954514 0.953994 0.9535 0.953023 0.952554 0.952091 0.951629 0.951169 0.950709 0.950247 0.949785 0.94932 0.948855 0.948387 0.947917 0.947445 0.946971 0.946494 0.946014 0.945532 0.945047 0.944559 0.944067 0.943572 0.943074 0.942571 0.942065 0.941554 0.941039 0.940519 0.939994 0.939463 0.938927 0.938386 0.937838 0.937283 0.936722 0.936153 0.935576 0.934991 0.934398 0.933795 0.933182 0.932559 0.931924 0.931278 0.930619 0.929947 0.92926 0.928557 0.927838 0.9271 0.926344 0.925567 0.924767 0.923943 0.923094 0.922215 0.921306 0.920363 0.919384 0.918365 0.917302 0.916192 0.91503 0.913812 0.912533 0.911186 0.909769 0.90828 0.906705 0.905045 0.903333 0.901544 0.899659 0.89779 0.89595 0.894125 0.892431 0.890955 0.890955 
1.09237 1.09253 1.09259 1.09259 1.09243 1.09241 1.0925 1.09238 1.09229 1.09227 1.09222 1.09214 1.09207 1.09201 1.09195 1.09189 1.09184 1.09179 1.09174 1.0917 1.09165 1.09162 1.09157 1.09154 1.0915 1.09147 1.09143 1.09141 1.09136 1.09134 1.0913 1.09128 1.09124 1.09123 1.09118 1.09117 1.09113 1.09112 1.09108 1.09107 1.09103 1.09103 1.09098 1.09098 1.09093 1.09093 1.09089 1.09089 1.09085 1.09085 1.09081 1.09081 1.09077 1.09077 1.09073 1.09073 1.0907 1.09069 1.09066 1.09065 1.09062 1.09061 1.09059 1.09058 1.09055 1.09054 1.09052 1.0905 1.09048 1.09047 1.09045 1.09043 1.09041 1.0904 1.09038 1.09036 1.09034 1.09033 1.09031 1.09029 1.09027 1.09025 1.09024 1.09022 1.0902 1.09017 1.09015 1.09013 1.0901 1.09006 1.09002 1.08996 1.08989 1.0898 1.08968 1.08953 1.08934 1.08911 1.08882 1.08847 1.08806 1.08758 1.08702 1.0864 1.08571 1.08495 1.08413 1.08325 1.08233 1.08138 1.0804 1.0794 1.07839 1.07738 1.07638 1.07539 1.07442 1.07347 1.07254 1.07164 1.07076 1.06991 1.06908 1.06827 1.06749 1.06672 1.06596 1.06522 1.0645 1.06378 1.06307 1.06237 1.06168 1.06099 1.06031 1.05962 1.05894 1.05827 1.05759 1.0569 1.05621 1.05551 1.0548 1.05406 1.05328 1.05246 1.05155 1.05054 1.04938 1.04803 1.04643 1.04453 1.04226 1.03956 1.03635 1.03255 1.02808 1.02289 1.01694 1.01031 1.0032 0.995889 0.988755 0.982144 0.976315 0.971401 0.967409 0.964259 0.96182 0.959948 0.958508 0.957385 0.956487 0.955745 0.955107 0.954539 0.954015 0.953519 0.95304 0.95257 0.952106 0.951645 0.951185 0.950724 0.950263 0.9498 0.949336 0.94887 0.948403 0.947933 0.947461 0.946987 0.946511 0.946031 0.945549 0.945065 0.944577 0.944086 0.943591 0.943093 0.942591 0.942085 0.941575 0.94106 0.940541 0.940017 0.939487 0.938952 0.938412 0.937865 0.937312 0.936752 0.936184 0.935609 0.935026 0.934435 0.933834 0.933224 0.932603 0.931972 0.931329 0.930674 0.930005 0.929323 0.928625 0.927912 0.927181 0.926432 0.925663 0.924873 0.924059 0.923221 0.922357 0.921463 0.920538 0.91958 0.918585 0.91755 0.916473 0.915349 0.914175 0.912949 0.911666 0.910322 0.908918 0.907455 0.905921 0.904328 0.902707 0.901043 0.899352 0.897701 0.896097 0.894567 0.893205 0.893205 
1.09239 1.09246 1.09245 1.09239 1.09236 1.09241 1.09234 1.09226 1.09225 1.0922 1.09213 1.09208 1.09202 1.09197 1.09191 1.09185 1.0918 1.09176 1.09171 1.09167 1.09163 1.09159 1.09155 1.09152 1.09148 1.09145 1.09141 1.09139 1.09135 1.09133 1.09129 1.09127 1.09123 1.09121 1.09117 1.09116 1.09112 1.09111 1.09106 1.09106 1.09102 1.09101 1.09097 1.09097 1.09092 1.09092 1.09088 1.09088 1.09084 1.09084 1.0908 1.0908 1.09076 1.09076 1.09072 1.09072 1.09068 1.09068 1.09065 1.09064 1.09061 1.0906 1.09058 1.09057 1.09054 1.09053 1.09051 1.09049 1.09047 1.09046 1.09044 1.09042 1.0904 1.09038 1.09037 1.09035 1.09033 1.09031 1.09029 1.09028 1.09026 1.09024 1.09022 1.0902 1.09018 1.09016 1.09014 1.09011 1.09008 1.09004 1.09 1.08994 1.08987 1.08978 1.08966 1.08951 1.08932 1.08908 1.08879 1.08844 1.08803 1.08755 1.08699 1.08637 1.08567 1.08491 1.08409 1.08322 1.0823 1.08135 1.08037 1.07937 1.07836 1.07735 1.07635 1.07537 1.0744 1.07345 1.07252 1.07162 1.07075 1.06989 1.06906 1.06825 1.06747 1.06669 1.06594 1.0652 1.06447 1.06375 1.06304 1.06233 1.06164 1.06094 1.06025 1.05957 1.05888 1.0582 1.05751 1.05681 1.05611 1.0554 1.05467 1.05391 1.05311 1.05226 1.05133 1.05028 1.0491 1.04772 1.04612 1.04422 1.04199 1.03935 1.03624 1.03258 1.02828 1.02327 1.0175 1.01103 1.00402 0.99675 0.98959 0.9829 0.976959 0.971921 0.967812 0.964561 0.96204 0.960106 0.958621 0.957466 0.956546 0.955788 0.955141 0.954567 0.954039 0.953541 0.95306 0.95259 0.952125 0.951664 0.951203 0.950743 0.950282 0.949819 0.949355 0.94889 0.948422 0.947953 0.947481 0.947007 0.946531 0.946052 0.94557 0.945086 0.944598 0.944108 0.943614 0.943116 0.942615 0.942109 0.9416 0.941086 0.940568 0.940044 0.939516 0.938982 0.938443 0.937897 0.937345 0.936787 0.936221 0.935648 0.935067 0.934478 0.933879 0.933272 0.932654 0.932026 0.931387 0.930736 0.930072 0.929394 0.928702 0.927995 0.927271 0.92653 0.92577 0.924989 0.924187 0.923362 0.922511 0.921634 0.920728 0.91979 0.91882 0.917813 0.916768 0.915683 0.914553 0.913377 0.912154 0.910881 0.909555 0.908183 0.906766 0.905299 0.9038 0.902291 0.90077 0.899266 0.897811 0.896417 0.895153 0.895153 
1.09239 1.09233 1.09231 1.09231 1.09231 1.09228 1.09223 1.09222 1.09218 1.09212 1.09207 1.09202 1.09197 1.09192 1.09186 1.09182 1.09177 1.09172 1.09168 1.09164 1.0916 1.09157 1.09153 1.0915 1.09146 1.09143 1.09139 1.09137 1.09133 1.09131 1.09127 1.09125 1.09121 1.0912 1.09116 1.09115 1.0911 1.0911 1.09105 1.09105 1.091 1.091 1.09096 1.09096 1.09091 1.09091 1.09087 1.09087 1.09083 1.09083 1.09079 1.09079 1.09075 1.09075 1.09071 1.09071 1.09067 1.09067 1.09064 1.09063 1.0906 1.09059 1.09056 1.09055 1.09053 1.09052 1.09049 1.09048 1.09046 1.09044 1.09042 1.09041 1.09039 1.09037 1.09035 1.09033 1.09032 1.0903 1.09028 1.09026 1.09024 1.09022 1.0902 1.09019 1.09016 1.09014 1.09012 1.09009 1.09006 1.09003 1.08998 1.08992 1.08985 1.08976 1.08964 1.08949 1.0893 1.08906 1.08877 1.08842 1.08801 1.08752 1.08697 1.08634 1.08565 1.08489 1.08407 1.08319 1.08228 1.08132 1.08034 1.07935 1.07834 1.07734 1.07634 1.07535 1.07438 1.07344 1.07251 1.07161 1.07073 1.06988 1.06905 1.06824 1.06745 1.06668 1.06592 1.06517 1.06444 1.06372 1.063 1.0623 1.0616 1.0609 1.06021 1.05951 1.05882 1.05813 1.05743 1.05673 1.05602 1.05529 1.05454 1.05377 1.05295 1.05207 1.05111 1.05004 1.04883 1.04744 1.04583 1.04395 1.04175 1.03918 1.03616 1.03263 1.02849 1.02365 1.01805 1.01173 1.00482 0.997589 0.990406 0.983639 0.97759 0.972433 0.968209 0.964859 0.962258 0.960263 0.958733 0.957547 0.956605 0.955834 0.955178 0.954597 0.954066 0.953565 0.953083 0.952612 0.952147 0.951686 0.951225 0.950765 0.950303 0.949841 0.949377 0.948912 0.948445 0.947975 0.947504 0.94703 0.946555 0.946076 0.945595 0.945111 0.944624 0.944134 0.94364 0.943143 0.942642 0.942138 0.941629 0.941116 0.940598 0.940076 0.939549 0.939016 0.938478 0.937934 0.937384 0.936827 0.936263 0.935692 0.935113 0.934526 0.933931 0.933326 0.932712 0.932087 0.931452 0.930805 0.930145 0.929473 0.928787 0.928086 0.92737 0.926637 0.925885 0.925115 0.924325 0.923512 0.922676 0.921815 0.920928 0.920012 0.919066 0.918087 0.917074 0.916025 0.914938 0.913811 0.912643 0.911434 0.910183 0.908891 0.907566 0.90621 0.904827 0.903433 0.902045 0.90067 0.899331 0.898044 0.896862 0.896862 
1.09223 1.09224 1.09224 1.09223 1.09221 1.09218 1.09216 1.09214 1.09209 1.09205 1.09201 1.09196 1.09192 1.09187 1.09182 1.09178 1.09173 1.09169 1.09165 1.09162 1.09158 1.09154 1.09151 1.09148 1.09144 1.09141 1.09137 1.09135 1.09131 1.09129 1.09125 1.09124 1.0912 1.09119 1.09114 1.09113 1.09109 1.09108 1.09104 1.09104 1.09099 1.09099 1.09094 1.09095 1.0909 1.0909 1.09085 1.09086 1.09081 1.09082 1.09077 1.09078 1.09073 1.09073 1.0907 1.09069 1.09066 1.09066 1.09062 1.09062 1.09059 1.09058 1.09055 1.09054 1.09052 1.0905 1.09048 1.09047 1.09044 1.09043 1.09041 1.09039 1.09037 1.09036 1.09034 1.09032 1.0903 1.09028 1.09026 1.09025 1.09023 1.09021 1.09019 1.09017 1.09015 1.09013 1.0901 1.09008 1.09005 1.09001 1.08996 1.08991 1.08983 1.08974 1.08962 1.08947 1.08928 1.08904 1.08875 1.0884 1.08798 1.0875 1.08695 1.08632 1.08562 1.08486 1.08404 1.08317 1.08226 1.0813 1.08033 1.07933 1.07833 1.07733 1.07633 1.07534 1.07438 1.07343 1.07251 1.0716 1.07073 1.06987 1.06904 1.06823 1.06744 1.06666 1.0659 1.06515 1.06442 1.06369 1.06298 1.06226 1.06156 1.06086 1.06016 1.05946 1.05876 1.05806 1.05736 1.05664 1.05592 1.05518 1.05442 1.05363 1.05279 1.05189 1.0509 1.04981 1.04858 1.04718 1.04557 1.0437 1.04154 1.03903 1.03611 1.0327 1.02871 1.02403 1.01859 1.01241 1.0056 0.998407 0.991202 0.984363 0.978209 0.972935 0.9686 0.965152 0.962474 0.960419 0.958846 0.957629 0.956667 0.955881 0.955216 0.95463 0.954095 0.953592 0.953109 0.952637 0.952172 0.95171 0.95125 0.950789 0.950328 0.949866 0.949402 0.948937 0.94847 0.948001 0.94753 0.947057 0.946581 0.946103 0.945622 0.945139 0.944652 0.944163 0.94367 0.943173 0.942673 0.94217 0.941662 0.94115 0.940633 0.940112 0.939586 0.939054 0.938517 0.937975 0.937426 0.936871 0.936309 0.93574 0.935164 0.93458 0.933987 0.933385 0.932774 0.932153 0.931522 0.93088 0.930225 0.929559 0.928879 0.928185 0.927476 0.926751 0.926009 0.925249 0.92447 0.92367 0.922849 0.922005 0.921136 0.920241 0.919319 0.918368 0.917386 0.916371 0.915324 0.914243 0.913127 0.911976 0.910792 0.909576 0.90833 0.907063 0.90578 0.904487 0.9032 0.90193 0.900688 0.899489 0.898375 0.898375 
1.09215 1.09215 1.09215 1.09214 1.09213 1.09211 1.09209 1.09206 1.09202 1.09199 1.09195 1.09191 1.09187 1.09183 1.09178 1.09174 1.0917 1.09166 1.09162 1.09159 1.09155 1.09152 1.09148 1.09145 1.09142 1.09139 1.09135 1.09133 1.09129 1.09128 1.09124 1.09122 1.09118 1.09117 1.09113 1.09112 1.09107 1.09107 1.09102 1.09102 1.09098 1.09098 1.09093 1.09093 1.09088 1.09089 1.09084 1.09085 1.0908 1.0908 1.09076 1.09076 1.09072 1.09072 1.09068 1.09068 1.09065 1.09064 1.09061 1.0906 1.09057 1.09057 1.09054 1.09053 1.0905 1.09049 1.09047 1.09045 1.09043 1.09042 1.0904 1.09038 1.09036 1.09034 1.09032 1.09031 1.09029 1.09027 1.09025 1.09023 1.09021 1.09019 1.09017 1.09015 1.09013 1.09011 1.09009 1.09006 1.09003 1.08999 1.08995 1.08989 1.08982 1.08972 1.0896 1.08945 1.08926 1.08902 1.08873 1.08838 1.08797 1.08748 1.08693 1.0863 1.08561 1.08485 1.08403 1.08316 1.08224 1.08129 1.08032 1.07932 1.07832 1.07732 1.07633 1.07534 1.07438 1.07343 1.0725 1.0716 1.07072 1.06987 1.06904 1.06822 1.06743 1.06665 1.06589 1.06514 1.0644 1.06367 1.06295 1.06224 1.06153 1.06082 1.06012 1.05941 1.05871 1.058 1.05729 1.05656 1.05583 1.05508 1.0543 1.05349 1.05263 1.05171 1.05071 1.0496 1.04835 1.04694 1.04533 1.04348 1.04136 1.03891 1.03608 1.03279 1.02893 1.02441 1.01913 1.01308 1.00636 0.999206 0.991981 0.985073 0.978817 0.973429 0.968985 0.965442 0.962687 0.960574 0.958959 0.957712 0.956729 0.955931 0.955257 0.954665 0.954127 0.953622 0.953137 0.952665 0.9522 0.951738 0.951277 0.950817 0.950356 0.949894 0.949431 0.948966 0.948499 0.94803 0.947559 0.947087 0.946611 0.946134 0.945653 0.94517 0.944684 0.944195 0.943703 0.943207 0.942708 0.942205 0.941698 0.941187 0.940671 0.940151 0.939626 0.939096 0.938561 0.93802 0.937473 0.93692 0.93636 0.935793 0.935219 0.934638 0.934048 0.933449 0.932842 0.932225 0.931598 0.93096 0.930311 0.92965 0.928976 0.928289 0.927588 0.926871 0.926139 0.925389 0.924622 0.923835 0.923029 0.922201 0.921351 0.920476 0.919577 0.918652 0.9177 0.916719 0.915709 0.91467 0.913602 0.912504 0.911379 0.910229 0.909056 0.907865 0.906663 0.905458 0.904256 0.90307 0.901908 0.900783 0.899728 0.899728 